LAMMPS data file for n2/co2

582 atoms
4 atom types
388 bonds
2 bond types

0 30 xlo xhi
0 30 ylo yhi
0 30 zlo zhi

Masses

1 12.0107
2 15.9999
3 28.0134
4 2

Pair Coeffs # lj/cut/coul/long

1 0.0536548 2.8
2 0.15699 3.05
3 0 0
4 0.0715394 3.31

Atoms # full

1 1 3 0.964 6.230828 15.269203 9.953949 0 0 0
2 1 4 -0.482 5.74332 15.513569 10.025512 0 0 0
3 1 4 -0.482 6.718335 15.024837 9.882385 0 0 0
4 2 3 0.964 21.979688 18.377714 17.846525 0 0 0
5 2 4 -0.482 22.488896 18.558631 17.74417 0 0 0
6 2 4 -0.482 21.47048 18.196797 17.948881 0 0 0
7 3 3 0.964 21.832218 11.588916 9.9571 0 0 0
8 3 4 -0.482 21.356912 11.313188 9.980719 0 0 0
9 3 4 -0.482 22.307524 11.864644 9.933481 0 0 0
10 4 3 0.964 2.892408 25.726813 16.74344 0 0 0
11 4 4 -0.482 3.068488 25.210063 16.676619 0 0 0
12 4 4 -0.482 2.716329 26.243563 16.810261 0 0 0
13 5 3 0.964 16.577018 11.90515 16.846831 0 0 0
14 5 4 -0.482 16.810556 11.45285 16.638541 0 0 0
15 5 4 -0.482 16.343481 12.35745 17.055121 0 0 0
16 6 3 0.964 13.895169 4.724642 12.341149 0 0 0
17 6 4 -0.482 14.027314 4.192651 12.296163 0 0 0
18 6 4 -0.482 13.763024 5.256632 12.386134 0 0 0
19 7 3 0.964 8.458129 23.080011 16.973021 0 0 0
20 7 4 -0.482 8.897443 22.75563 16.907598 0 0 0
21 7 4 -0.482 8.018815 23.404393 17.038444 0 0 0
22 8 3 0.964 20.823395 21.790628 10.92601 0 0 0
23 8 4 -0.482 20.987561 22.298436 10.793045 0 0 0
24 8 4 -0.482 20.659229 21.282819 11.058975 0 0 0
25 9 3 0.964 7.242728 11.1507 12.29023 0 0 0
26 9 4 -0.482 7.011826 10.664415 12.402974 0 0 0
27 9 4 -0.482 7.473629 11.636986 12.177486 0 0 0
28 10 3 0.964 19.865006 3.154137 15.870004 0 0 0
29 10 4 -0.482 19.742354 2.640249 15.717112 0 0 0
30 10 4 -0.482 19.987658 3.668024 16.022897 0 0 0
31 11 3 0.964 18.444093 14.38261 11.680059 0 0 0
32 11 4 -0.482 18.343448 14.286121 11.148025 0 0 0
33 11 4 -0.482 18.544738 14.479099 12.212093 0 0 0
34 12 3 0.964 18.330587 4.489563 10.392857 0 0 0
35 12 4 -0.482 18.549954 4.952142 10.191862 0 0 0
36 12 4 -0.482 18.111221 4.026983 10.593851 0 0 0
37 13 3 0.964 27.993994 8.850804 14.310117 0 0 0
38 13 4 -0.482 27.994085 8.300819 14.306036 0 0 0
39 13 4 -0.482 27.993904 9.400789 14.314197 0 0 0
40 14 3 0.964 21.004817 25.00699 11.002665 0 0 0
41 14 4 -0.482 20.934192 24.836218 10.484641 0 0 0
42 14 4 -0.482 21.075443 25.177763 11.520689 0 0 0
43 15 3 0.964 16.334035 25.578993 13.358372 0 0 0
44 15 4 -0.482 15.807708 25.735182 13.32543 0 0 0
45 15 4 -0.482 16.860362 25.422804 13.391315 0 0 0
46 16 3 0.964 27.609911 23.610729 18.079506 0 0 0
47 16 4 -0.482 27.793646 23.118173 17.917857 0 0 0
48 16 4 -0.482 27.426177 24.103284 18.241156 0 0 0
49 17 3 0.964 10.990295 18.098688 10.101768 0 0 0
50 17 4 -0.482 10.486355 17.879498 10.079407 0 0 0
51 17 4 -0.482 11.494236 18.317878 10.124129 0 0 0
52 18 3 0.964 17.770871 18.662229 17.507586 0 0 0
53 18 4 -0.482 18.062099 18.260009 17.744031 0 0 0
54 18 4 -0.482 17.479644 19.064448 17.271141 0 0 0
55 19 3 0.964 3.947913 16.479553 14.952283 0 0 0
56 19 4 -0.482 3.86815 17.022875 14.98292 0 0 0
57 19 4 -0.482 4.027677 15.936231 14.921646 0 0 0
58 20 3 0.964 24.230671 16.934154 13.887578 0 0 0
59 20 4 -0.482 24.547655 16.507806 14.029873 0 0 0
60 20 4 -0.482 23.913687 17.360502 13.745282 0 0 0
61 21 3 0.964 3.734217 23.452774 11.783906 0 0 0
62 21 4 -0.482 3.299835 23.155498 11.943404 0 0 0
63 21 4 -0.482 4.168599 23.75005 11.624407 0 0 0
64 22 3 0.964 7.861225 17.068626 12.080648 0 0 0
65 22 4 -0.482 7.435982 16.726187 12.014292 0 0 0
66 22 4 -0.482 8.286469 17.411066 12.147003 0 0 0
67 23 3 0.964 15.830456 27.799471 18.2644 0 0 0
68 23 4 -0.482 15.343063 27.999563 18.106566 0 0 0
69 23 4 -0.482 16.317849 27.59938 18.422234 0 0 0
70 24 3 0.964 4.461219 11.785859 19.815348 0 0 0
71 24 4 -0.482 4.032625 11.775175 20.159866 0 0 0
72 24 4 -0.482 4.889813 11.796543 19.470829 0 0 0
73 25 3 0.964 6.74521 19.112322 10.85309 0 0 0
74 25 4 -0.482 6.338746 18.741803 10.854728 0 0 0
75 25 4 -0.482 7.151675 19.48284 10.851452 0 0 0
76 26 3 0.964 11.310204 13.075015 14.72901 0 0 0
77 26 4 -0.482 11.856702 13.131512 14.703542 0 0 0
78 26 4 -0.482 10.763707 13.018518 14.754478 0 0 0
79 27 3 0.964 4.335514 14.211849 12.22523 0 0 0
80 27 4 -0.482 4.593326 14.346171 12.692124 0 0 0
81 27 4 -0.482 4.077702 14.077527 11.758336 0 0 0
82 28 3 0.964 16.165315 20.380593 14.307369 0 0 0
83 28 4 -0.482 15.728599 20.70776 14.238516 0 0 0
84 28 4 -0.482 16.602031 20.053426 14.376223 0 0 0
85 29 3 0.964 18.05661 24.213066 14.963559 0 0 0
86 29 4 -0.482 18.593878 24.29476 14.878885 0 0 0
87 29 4 -0.482 17.519342 24.131373 15.048232 0 0 0
88 30 3 0.964 19.173785 10.734363 12.013843 0 0 0
89 30 4 -0.482 18.751451 10.386234 12.068066 0 0 0
90 30 4 -0.482 19.59612 11.082491 11.959621 0 0 0
91 31 3 0.964 3.950675 7.252418 12.932599 0 0 0
92 31 4 -0.482 4.220197 7.516946 12.532746 0 0 0
93 31 4 -0.482 3.681153 6.98789 13.332453 0 0 0
94 32 3 0.964 12.909046 7.72311 19.782892 0 0 0
95 32 4 -0.482 12.453556 7.643651 20.080742 0 0 0
96 32 4 -0.482 13.364537 7.802569 19.485042 0 0 0
97 33 3 0.964 26.076521 7.428392 16.000293 0 0 0
98 33 4 -0.482 26.239124 7.010252 15.682143 0 0 0
99 33 4 -0.482 25.913918 7.846531 16.318443 0 0 0
100 34 3 0.964 6.9186 17.864091 19.527445 0 0 0
101 34 4 -0.482 7.372721 17.554005 19.516427 0 0 0
102 34 4 -0.482 6.46448 18.174177 19.538464 0 0 0
103 35 3 0.964 22.864175 26.96299 14.669905 0 0 0
104 35 4 -0.482 22.981032 27.042167 14.138327 0 0 0
105 35 4 -0.482 22.747318 26.883814 15.201483 0 0 0
106 36 3 0.964 15.384244 10.416071 13.581946 0 0 0
107 36 4 -0.482 15.288946 10.528609 14.111808 0 0 0
108 36 4 -0.482 15.479542 10.303534 13.052084 0 0 0
109 37 3 0.964 2.759097 9.598054 19.777439 0 0 0
110 37 4 -0.482 3.193803 9.508023 19.452747 0 0 0
111 37 4 -0.482 2.324391 9.688085 20.102131 0 0 0
112 38 3 0.964 20.839177 26.793124 17.206845 0 0 0
113 38 4 -0.482 20.882518 26.266498 17.359445 0 0 0
114 38 4 -0.482 20.795836 27.31975 17.054245 0 0 0
115 39 3 0.964 22.530192 3.233125 15.714185 0 0 0
116 39 4 -0.482 22.741688 2.784837 15.475841 0 0 0
117 39 4 -0.482 22.318696 3.681412 15.95253 0 0 0
118 40 3 0.964 3.404069 23.140219 14.932413 0 0 0
119 40 4 -0.482 3.941797 23.245221 14.884218 0 0 0
120 40 4 -0.482 2.86634 23.035217 14.980608 0 0 0
121 41 3 0.964 13.6373 7.443676 12.098676 0 0 0
122 41 4 -0.482 13.377471 7.461045 12.583121 0 0 0
123 41 4 -0.482 13.897128 7.426307 11.61423 0 0 0
124 42 3 0.964 22.36101 22.083633 17.289771 0 0 0
125 42 4 -0.482 22.74788 22.211542 16.920352 0 0 0
126 42 4 -0.482 21.97414 21.955724 17.659191 0 0 0
127 43 3 0.964 18.127256 21.980888 19.345109 0 0 0
128 43 4 -0.482 17.967422 22.072504 18.826881 0 0 0
129 43 4 -0.482 18.28709 21.889273 19.863336 0 0 0
130 44 3 0.964 4.902377 19.756544 12.219569 0 0 0
131 44 4 -0.482 4.833627 19.340169 12.57228 0 0 0
132 44 4 -0.482 4.971128 20.172919 11.866858 0 0 0
133 45 3 0.964 4.009832 25.15617 13.794731 0 0 0
134 45 4 -0.482 3.483545 25.29463 13.874421 0 0 0
135 45 4 -0.482 4.536119 25.017709 13.71504 0 0 0
136 46 3 0.964 17.78434 12.281959 13.623666 0 0 0
137 46 4 -0.482 18.300079 12.138823 13.497075 0 0 0
138 46 4 -0.482 17.268601 12.425095 13.750257 0 0 0
139 47 3 0.964 18.211082 24.962373 17.221006 0 0 0
140 47 4 -0.482 18.187282 24.424517 17.333455 0 0 0
141 47 4 -0.482 18.234883 25.500228 17.108556 0 0 0
142 48 3 0.964 2.442749 13.396508 19.05482 0 0 0
143 48 4 -0.482 2.310088 12.974466 18.728046 0 0 0
144 48 4 -0.482 2.57541 13.81855 19.381595 0 0 0
145 49 3 0.964 4.565166 2.224867 10.202031 0 0 0
146 49 4 -0.482 4.235956 1.992852 10.576584 0 0 0
147 49 4 -0.482 4.894376 2.456882 9.827478 0 0 0
148 50 3 0.964 15.539049 25.42786 17.767213 0 0 0
149 50 4 -0.482 15.01814 25.580127 17.856477 0 0 0
150 50 4 -0.482 16.059959 25.275592 17.677949 0 0 0
151 51 3 0.964 18.111001 8.595229 14.886104 0 0 0
152 51 4 -0.482 17.833192 8.777676 15.324323 0 0 0
153 51 4 -0.482 18.38881 8.412782 14.447886 0 0 0
154 52 3 0.964 17.772388 27.599472 13.280406 0 0 0
155 52 4 -0.482 17.385279 27.982644 13.204076 0 0 0
156 52 4 -0.482 18.159497 27.216301 13.356736 0 0 0
157 53 3 0.964 6.678551 16.976125 14.762529 0 0 0
158 53 4 -0.482 6.567781 16.592528 15.140793 0 0 0
159 53 4 -0.482 6.789321 17.359721 14.384265 0 0 0
160 54 3 0.964 25.013916 13.389598 19.106217 0 0 0
161 54 4 -0.482 24.911748 12.869016 19.251323 0 0 0
162 54 4 -0.482 25.116083 13.91018 18.96111 0 0 0
163 55 3 0.964 24.43215 24.288696 16.629451 0 0 0
164 55 4 -0.482 24.721112 23.916451 16.91306 0 0 0
165 55 4 -0.482 24.143188 24.660941 16.345841 0 0 0
166 56 3 0.964 14.7979 15.738473 19.294134 0 0 0
167 56 4 -0.482 14.383383 15.851116 18.950642 0 0 0
168 56 4 -0.482 15.212417 15.625829 19.637626 0 0 0
169 57 3 0.964 12.885746 25.195705 18.248068 0 0 0
170 57 4 -0.482 13.070579 24.859423 18.642087 0 0 0
171 57 4 -0.482 12.700914 25.531987 17.854049 0 0 0
172 58 3 0.964 12.02973 19.444759 12.310505 0 0 0
173 58 4 -0.482 11.831819 19.650654 11.840464 0 0 0
174 58 4 -0.482 12.227641 19.238863 12.780546 0 0 0
175 59 3 0.964 24.856095 5.210054 14.231217 0 0 0
176 59 4 -0.482 24.575798 5.197989 13.758155 0 0 0
177 59 4 -0.482 25.136392 5.22212 14.704279 0 0 0
178 60 3 0.964 25.926985 19.195185 19.521769 0 0 0
179 60 4 -0.482 26.475476 19.235601 19.516821 0 0 0
180 60 4 -0.482 25.378495 19.15477 19.526718 0 0 0
181 61 3 0.964 2.52632 19.248653 11.917872 0 0 0
182 61 4 -0.482 2.714654 18.836606 12.229718 0 0 0
183 61 4 -0.482 2.337987 19.660699 11.606026 0 0 0
184 62 3 0.964 4.884628 2.879069 12.457216 0 0 0
185 62 4 -0.482 5.339295 3.039828 12.192765 0 0 0
186 62 4 -0.482 4.42996 2.71831 12.721667 0 0 0
187 63 3 0.964 27.866641 12.892328 13.732634 0 0 0
188 63 4 -0.482 27.989972 12.365212 13.829788 0 0 0
189 63 4 -0.482 27.74331 13.419443 13.63548 0 0 0
190 64 3 0.964 7.859794 17.215402 9.937801 0 0 0
191 64 4 -0.482 7.3164 17.155658 9.877357 0 0 0
192 64 4 -0.482 8.403188 17.275145 9.998246 0 0 0
193 65 3 0.964 20.936779 16.140827 12.388747 0 0 0
194 65 4 -0.482 20.546065 15.778226 12.253236 0 0 0
195 65 4 -0.482 21.327494 16.503427 12.524259 0 0 0
196 66 3 0.964 19.213889 15.86588 18.360356 0 0 0
197 66 4 -0.482 19.624215 16.076399 18.060666 0 0 0
198 66 4 -0.482 18.803562 15.65536 18.660045 0 0 0
199 67 3 0.964 27.105767 18.079798 16.07781 0 0 0
200 67 4 -0.482 26.694615 17.779559 15.869698 0 0 0
201 67 4 -0.482 27.516919 18.380037 16.285922 0 0 0
202 68 3 0.964 24.049234 25.580247 9.921784 0 0 0
203 68 4 -0.482 23.543985 25.793326 9.879109 0 0 0
204 68 4 -0.482 24.554483 25.367168 9.964458 0 0 0
205 69 3 0.964 10.320766 14.75041 17.469365 0 0 0
206 69 4 -0.482 9.840722 14.483569 17.498579 0 0 0
207 69 4 -0.482 10.80081 15.017252 17.440151 0 0 0
208 70 3 0.964 10.191591 16.406357 13.083426 0 0 0
209 70 4 -0.482 10.508289 16.808285 12.881791 0 0 0
210 70 4 -0.482 9.874893 16.00443 13.285061 0 0 0
211 71 3 0.964 2.810691 20.073996 20.087453 0 0 0
212 71 4 -0.482 3.326109 20.265944 20.086724 0 0 0
213 71 4 -0.482 2.295273 19.882049 20.088182 0 0 0
214 72 3 0.964 6.422198 2.600244 19.8037 0 0 0
215 72 4 -0.482 5.954884 2.519072 20.08214 0 0 0
216 72 4 -0.482 6.889512 2.681416 19.525261 0 0 0
217 73 3 0.964 10.194128 11.639758 16.758507 0 0 0
218 73 4 -0.482 9.828792 11.587547 16.350705 0 0 0
219 73 4 -0.482 10.559465 11.691969 17.16631 0 0 0
220 74 3 0.964 7.69837 23.954158 11.427649 0 0 0
221 74 4 -0.482 7.19783 23.771221 11.563639 0 0 0
222 74 4 -0.482 8.19891 24.137096 11.291659 0 0 0
223 75 3 0.964 19.752412 18.46316 10.865679 0 0 0
224 75 4 -0.482 19.397751 18.043085 10.881563 0 0 0
225 75 4 -0.482 20.107073 18.883235 10.849794 0 0 0
226 76 3 0.964 27.40061 4.24629 12.862733 0 0 0
227 76 4 -0.482 27.176594 4.238938 12.360476 0 0 0
228 76 4 -0.482 27.624626 4.253641 13.364991 0 0 0
229 77 3 0.964 14.115452 20.874977 12.144254 0 0 0
230 77 4 -0.482 14.197884 21.267825 11.768256 0 0 0
231 77 4 -0.482 14.03302 20.482128 12.520253 0 0 0
232 78 3 0.964 5.733592 10.356004 15.703048 0 0 0
233 78 4 -0.482 6.277055 10.310662 15.77441 0 0 0
234 78 4 -0.482 5.19013 10.401346 15.631685 0 0 0
235 79 3 0.964 5.234535 25.096043 10.177037 0 0 0
236 79 4 -0.482 5.509585 24.74312 9.857205 0 0 0
237 79 4 -0.482 4.959485 25.448967 10.496869 0 0 0
238 80 3 0.964 25.040347 17.933804 17.445493 0 0 0
239 80 4 -0.482 24.588124 18.09599 17.177743 0 0 0
240 80 4 -0.482 25.49257 17.771618 17.713244 0 0 0
241 81 3 0.964 18.968142 5.433442 19.891748 0 0 0
242 81 4 -0.482 18.477112 5.679865 19.917542 0 0 0
243 81 4 -0.482 19.459172 5.18702 19.865954 0 0 0
244 82 3 0.964 15.911985 9.030763 18.59453 0 0 0
245 82 4 -0.482 15.382168 9.138126 18.493202 0 0 0
246 82 4 -0.482 16.441801 8.9234 18.695858 0 0 0
247 83 3 0.964 24.670823 26.938529 17.849047 0 0 0
248 83 4 -0.482 24.812785 26.821964 17.330627 0 0 0
249 83 4 -0.482 24.528862 27.055094 18.367468 0 0 0
250 84 3 0.964 2.678288 10.871539 16.636336 0 0 0
251 84 4 -0.482 2.478841 11.281637 16.943811 0 0 0
252 84 4 -0.482 2.877734 10.461441 16.328861 0 0 0
253 85 3 0.964 14.087006 24.790025 15.290391 0 0 0
254 85 4 -0.482 14.119804 24.724317 15.835466 0 0 0
255 85 4 -0.482 14.054208 24.855734 14.745316 0 0 0
256 86 3 0.964 6.446084 7.248834 13.620128 0 0 0
257 86 4 -0.482 6.910581 7.516811 13.497933 0 0 0
258 86 4 -0.482 5.981588 6.980857 13.742324 0 0 0
259 87 3 0.964 16.260918 6.493111 10.779621 0 0 0
260 87 4 -0.482 16.757494 6.381543 10.988104 0 0 0
261 87 4 -0.482 15.764342 6.604678 10.571139 0 0 0
262 88 3 0.964 10.308537 16.602278 19.742294 0 0 0
263 88 4 -0.482 10.030887 16.276483 19.396942 0 0 0
264 88 4 -0.482 10.586187 16.928073 20.087647 0 0 0
265 89 3 0.964 5.47625 9.468867 11.12342 0 0 0
266 89 4 -0.482 5.894895 9.143278 11.269119 0 0 0
267 89 4 -0.482 5.057606 9.794455 10.97772 0 0 0
268 90 3 0.964 11.17227 9.834605 15.498944 0 0 0
269 90 4 -0.482 10.880899 9.607804 15.906576 0 0 0
270 90 4 -0.482 11.463641 10.061405 15.091311 0 0 0
271 91 3 0.964 22.269741 3.224424 19.500124 0 0 0
272 91 4 -0.482 22.28667 3.525088 19.960358 0 0 0
273 91 4 -0.482 22.252813 2.923761 19.039891 0 0 0
274 92 3 0.964 11.397694 16.444844 15.288991 0 0 0
275 92 4 -0.482 10.947179 16.138008 15.21559 0 0 0
276 92 4 -0.482 11.84821 16.75168 15.362391 0 0 0
277 93 3 0.964 25.415361 25.428244 14.524579 0 0 0
278 93 4 -0.482 25.917896 25.508074 14.73335 0 0 0
279 93 4 -0.482 24.912826 25.348414 14.315807 0 0 0
280 94 3 0.964 15.570475 21.094867 18.768742 0 0 0
281 94 4 -0.482 15.054302 21.269401 18.693889 0 0 0
282 94 4 -0.482 16.086649 20.920334 18.843596 0 0 0
283 95 3 0.964 27.112289 19.647495 12.027071 0 0 0
284 95 4 -0.482 27.35064 19.600678 12.520525 0 0 0
285 95 4 -0.482 26.873939 19.694312 11.533617 0 0 0
286 96 3 0.964 9.36453 8.883172 12.602664 0 0 0
287 96 4 -0.482 9.69344 8.4555 12.709507 0 0 0
288 96 4 -0.482 9.03562 9.310843 12.495821 0 0 0
289 97 3 0.964 5.038003 11.986924 11.595405 0 0 0
290 97 4 -0.482 5.46896 12.205408 11.332649 0 0 0
291 97 4 -0.482 4.607047 11.768439 11.858162 0 0 0
292 98 3 0.964 8.831711 20.188168 12.700143 0 0 0
293 98 4 -0.482 8.287936 20.165114 12.779369 0 0 0
294 98 4 -0.482 9.375487 20.211222 12.620917 0 0 0
295 99 3 0.964 10.008837 4.904731 20.151715 0 0 0
296 99 4 -0.482 9.45928 4.924309 20.141518 0 0 0
297 99 4 -0.482 10.558394 4.885152 20.161912 0 0 0
298 100 3 0.964 9.111424 10.135724 19.885952 0 0 0
299 100 4 -0.482 8.901561 10.559316 19.604834 0 0 0
300 100 4 -0.482 9.321287 9.712132 20.167071 0 0 0
301 101 3 0.964 11.990597 23.94914 16.378687 0 0 0
302 101 4 -0.482 11.665492 24.357581 16.205532 0 0 0
303 101 4 -0.482 12.315702 23.540699 16.551841 0 0 0
304 102 3 0.964 23.845713 4.556131 18.360933 0 0 0
305 102 4 -0.482 23.501781 4.954551 18.201333 0 0 0
306 102 4 -0.482 24.189646 4.157712 18.520533 0 0 0
307 103 3 0.964 27.711906 7.283518 12.242179 0 0 0
308 103 4 -0.482 27.42843 7.744759 12.145236 0 0 0
309 103 4 -0.482 27.995382 6.822277 12.339121 0 0 0
310 104 3 0.964 19.355246 26.582529 19.428794 0 0 0
311 104 4 -0.482 19.771577 26.223507 19.412317 0 0 0
312 104 4 -0.482 18.938914 26.941551 19.445271 0 0 0
313 105 3 0.964 7.289466 13.135404 19.047258 0 0 0
314 105 4 -0.482 7.149645 13.456389 18.62309 0 0 0
315 105 4 -0.482 7.429287 12.814419 19.471427 0 0 0
316 106 3 0.964 18.664124 20.635749 13.012428 0 0 0
317 106 4 -0.482 18.608099 20.708835 13.554664 0 0 0
318 106 4 -0.482 18.720148 20.562664 12.470192 0 0 0
319 107 3 0.964 19.065027 21.357123 16.858658 0 0 0
320 107 4 -0.482 19.191513 20.877972 17.097227 0 0 0
321 107 4 -0.482 18.93854 21.836274 16.620089 0 0 0
322 108 3 0.964 10.6627 24.074304 18.216086 0 0 0
323 108 4 -0.482 10.953651 23.650188 18.410951 0 0 0
324 108 4 -0.482 10.371749 24.498421 18.021221 0 0 0
325 109 3 0.964 18.908829 2.026548 17.94862 0 0 0
326 109 4 -0.482 19.445819 2.011624 18.066598 0 0 0
327 109 4 -0.482 18.371839 2.041473 17.830643 0 0 0
328 110 3 0.964 25.785729 26.754572 12.320515 0 0 0
329 110 4 -0.482 25.328405 26.881509 12.598438 0 0 0
330 110 4 -0.482 26.243054 26.627634 12.042592 0 0 0
331 111 3 0.964 5.290185 23.457972 17.036897 0 0 0
332 111 4 -0.482 5.605432 23.887347 17.173851 0 0 0
333 111 4 -0.482 4.974938 23.028597 16.899942 0 0 0
334 112 3 0.964 25.615812 2.237148 12.311416 0 0 0
335 112 4 -0.482 25.222063 2.021758 12.629329 0 0 0
336 112 4 -0.482 26.009562 2.452538 11.993503 0 0 0
337 113 3 0.964 22.501144 2.431476 12.512264 0 0 0
338 113 4 -0.482 22.062487 2.25747 12.229772 0 0 0
339 113 4 -0.482 22.9398 2.605483 12.794757 0 0 0
340 114 3 0.964 16.083272 27.380458 15.306866 0 0 0
341 114 4 -0.482 16.07171 27.827794 14.987091 0 0 0
342 114 4 -0.482 16.094835 26.933121 15.626642 0 0 0
343 115 3 0.964 3.152407 21.125508 16.705573 0 0 0
344 115 4 -0.482 3.397446 20.889027 16.273678 0 0 0
345 115 4 -0.482 2.907369 21.361989 17.137467 0 0 0
346 116 3 0.964 4.861102 26.833711 18.07223 0 0 0
347 116 4 -0.482 5.075562 26.50989 17.682812 0 0 0
348 116 4 -0.482 4.646642 27.157532 18.461649 0 0 0
349 117 3 0.964 8.110287 27.056106 18.861288 0 0 0
350 117 4 -0.482 7.77298 27.458184 19.025781 0 0 0
351 117 4 -0.482 8.447593 26.654029 18.696795 0 0 0
352 118 3 0.964 15.499247 23.717011 19.690473 0 0 0
353 118 4 -0.482 15.830011 23.277599 19.694051 0 0 0
354 118 4 -0.482 15.168484 24.156423 19.686895 0 0 0
355 119 3 0.964 14.710573 11.338816 19.229341 0 0 0
356 119 4 -0.482 14.30847 11.340961 19.604586 0 0 0
357 119 4 -0.482 15.112676 11.33667 18.854097 0 0 0
358 120 3 0.964 9.03366 16.698468 16.530357 0 0 0
359 120 4 -0.482 9.075939 16.515426 17.047279 0 0 0
360 120 4 -0.482 8.991381 16.881509 16.013435 0 0 0
361 121 3 0.964 10.297319 3.958302 17.011828 0 0 0
362 121 4 -0.482 10.846231 3.962773 17.046119 0 0 0
363 121 4 -0.482 9.748407 3.953831 16.977536 0 0 0
364 122 3 0.964 8.807475 26.508129 15.269805 0 0 0
365 122 4 -0.482 8.920805 26.712687 15.767613 0 0 0
366 122 4 -0.482 8.694145 26.303571 14.771998 0 0 0
367 123 3 0.964 17.325641 2.479907 15.397777 0 0 0
368 123 4 -0.482 17.575644 2.957223 15.28747 0 0 0
369 123 4 -0.482 17.075637 2.002591 15.508085 0 0 0
370 124 3 0.964 2.012541 7.81992 16.774598 0 0 0
371 124 4 -0.482 2.002862 7.270043 16.768156 0 0 0
372 124 4 -0.482 2.022219 8.369797 16.781041 0 0 0
373 125 3 0.964 21.719644 6.570449 10.235364 0 0 0
374 125 4 -0.482 21.695347 6.957239 10.625624 0 0 0
375 125 4 -0.482 21.743942 6.183659 9.845104 0 0 0
376 126 3 0.964 23.81749 4.246665 10.053577 0 0 0
377 126 4 -0.482 24.320872 4.191416 10.26818 0 0 0
378 126 4 -0.482 23.314109 4.301914 9.838973 0 0 0
379 127 3 0.964 24.664714 9.600266 10.106692 0 0 0
380 127 4 -0.482 24.531941 10.103185 10.285421 0 0 0
381 127 4 -0.482 24.797486 9.097347 9.927964 0 0 0
382 128 3 0.964 5.694366 9.37223 20.046976 0 0 0
383 128 4 -0.482 6.128999 9.690742 19.936772 0 0 0
384 128 4 -0.482 5.259733 9.053719 20.15718 0 0 0
385 129 3 0.964 17.170127 13.425903 19.389491 0 0 0
386 129 4 -0.482 17.125963 12.955324 19.108236 0 0 0
387 129 4 -0.482 17.214291 13.896483 19.670746 0 0 0
388 130 3 0.964 20.447162 3.969361 11.14848 0 0 0
389 130 4 -0.482 20.581674 4.446474 11.386742 0 0 0
390 130 4 -0.482 20.312649 3.492247 10.910218 0 0 0
391 131 3 0.964 21.027959 12.437201 13.772114 0 0 0
392 131 4 -0.482 20.47914 12.404323 13.786851 0 0 0
393 131 4 -0.482 21.576778 12.470078 13.757377 0 0 0
394 132 3 0.964 22.855281 20.551717 20.032134 0 0 0
395 132 4 -0.482 22.629368 20.065676 19.908731 0 0 0
396 132 4 -0.482 23.081193 21.037757 20.155537 0 0 0
397 133 3 0.964 9.047105 5.687131 10.535152 0 0 0
398 133 4 -0.482 9.044055 5.299586 10.925409 0 0 0
399 133 4 -0.482 9.050156 6.074675 10.144896 0 0 0
400 134 3 0.964 16.041323 7.944347 13.094947 0 0 0
401 134 4 -0.482 16.506291 8.108024 12.850991 0 0 0
402 134 4 -0.482 15.576355 7.78067 13.338904 0 0 0
403 135 3 0.964 13.315791 11.613312 13.972031 0 0 0
404 135 4 -0.482 13.278616 11.698741 13.429979 0 0 0
405 135 4 -0.482 13.352966 11.527883 14.514082 0 0 0
406 136 3 0.964 20.594452 11.634637 17.233381 0 0 0
407 136 4 -0.482 20.229658 11.223026 17.232109 0 0 0
408 136 4 -0.482 20.959247 12.046247 17.234653 0 0 0
409 137 3 0.964 11.601558 14.53705 19.780493 0 0 0
410 137 4 -0.482 11.18964 14.291813 19.510897 0 0 0
411 137 4 -0.482 12.013477 14.782286 20.05009 0 0 0
412 138 3 0.964 13.642504 19.011402 17.592548 0 0 0
413 138 4 -0.482 13.565849 19.064265 18.134609 0 0 0
414 138 4 -0.482 13.719159 18.958539 17.050488 0 0 0
415 139 3 0.964 19.078458 15.220337 14.98531 0 0 0
416 139 4 -0.482 19.444636 15.426894 15.339919 0 0 0
417 139 4 -0.482 18.71228 15.013779 14.630702 0 0 0
418 140 3 0.964 25.832815 21.279059 15.17578 0 0 0
419 140 4 -0.482 25.805126 21.035951 14.683203 0 0 0
420 140 4 -0.482 25.860505 21.522167 15.668357 0 0 0
421 141 3 0.964 23.13896 15.998419 18.326669 0 0 0
422 141 4 -0.482 23.24322 16.455449 18.038998 0 0 0
423 141 4 -0.482 23.0347 15.54139 18.614339 0 0 0
424 142 3 0.964 18.879333 3.659666 13.324102 0 0 0
425 142 4 -0.482 18.638751 4.017829 13.665188 0 0 0
426 142 4 -0.482 19.119915 3.301504 12.983017 0 0 0
427 143 3 0.964 6.92507 14.5691 12.471271 0 0 0
428 143 4 -0.482 6.912358 14.298183 11.992792 0 0 0
429 143 4 -0.482 6.937783 14.840016 12.949751 0 0 0
430 144 3 0.964 27.64952 6.431148 17.334029 0 0 0
431 144 4 -0.482 27.439728 5.923515 17.305807 0 0 0
432 144 4 -0.482 27.859311 6.93878 17.36225 0 0 0
433 145 3 0.964 7.80268 13.436016 15.943174 0 0 0
434 145 4 -0.482 8.10063 13.057159 15.678233 0 0 0
435 145 4 -0.482 7.504731 13.814872 16.208115 0 0 0
436 146 3 0.964 12.629268 2.429705 11.591486 0 0 0
437 146 4 -0.482 12.147272 2.683782 11.66649 0 0 0
438 146 4 -0.482 13.111263 2.175629 11.516482 0 0 0
439 147 3 0.964 10.515095 21.507441 11.075229 0 0 0
440 147 4 -0.482 10.475767 21.233157 10.600128 0 0 0
441 147 4 -0.482 10.554423 21.781726 11.55033 0 0 0
442 148 3 0.964 10.683357 27.381717 18.375675 0 0 0
443 148 4 -0.482 10.738391 27.928838 18.364281 0 0 0
444 148 4 -0.482 10.628324 26.834596 18.387068 0 0 0
445 149 3 0.964 14.401391 19.55702 10.015654 0 0 0
446 149 4 -0.482 14.801788 19.934085 10.017734 0 0 0
447 149 4 -0.482 14.000994 19.179955 10.013573 0 0 0
448 150 3 0.964 27.735795 10.25479 11.167639 0 0 0
449 150 4 -0.482 27.911552 9.843229 10.847909 0 0 0
450 150 4 -0.482 27.560038 10.666351 11.487368 0 0 0
451 151 3 0.964 20.096489 6.217666 13.182968 0 0 0
452 151 4 -0.482 20.381214 6.480946 13.572987 0 0 0
453 151 4 -0.482 19.811763 5.954386 12.792949 0 0 0
454 152 3 0.964 2.543565 7.478321 9.876107 0 0 0
455 152 4 -0.482 2.039329 7.258702 9.872377 0 0 0
456 152 4 -0.482 3.047801 7.69794 9.879836 0 0 0
457 153 3 0.964 2.549583 5.744237 11.391002 0 0 0
458 153 4 -0.482 3.063434 5.825368 11.212465 0 0 0
459 153 4 -0.482 2.035733 5.663106 11.569539 0 0 0
460 154 3 0.964 23.558753 20.077539 16.108809 0 0 0
461 154 4 -0.482 23.954402 20.441828 16.223938 0 0 0
462 154 4 -0.482 23.163103 19.71325 15.993681 0 0 0
463 155 3 0.964 20.620319 22.163247 13.290187 0 0 0
464 155 4 -0.482 20.62333 21.61619 13.233445 0 0 0
465 155 4 -0.482 20.617307 22.710303 13.346929 0 0 0
466 156 3 0.964 13.96407 14.502313 15.363273 0 0 0
467 156 4 -0.482 13.880329 14.181337 14.924569 0 0 0
468 156 4 -0.482 14.047812 14.823289 15.801978 0 0 0
469 157 3 0.964 21.102959 4.91854 18.061324 0 0 0
470 157 4 -0.482 21.100328 5.407137 18.313842 0 0 0
471 157 4 -0.482 21.105591 4.429942 17.808805 0 0 0
472 158 3 0.964 24.40855 13.8897 16.653007 0 0 0
473 158 4 -0.482 24.225966 14.4083 16.667737 0 0 0
474 158 4 -0.482 24.591133 13.371099 16.638276 0 0 0
475 159 3 0.964 18.46787 9.652973 17.63339 0 0 0
476 159 4 -0.482 18.010834 9.748903 17.342847 0 0 0
477 159 4 -0.482 18.924906 9.557042 17.923933 0 0 0
478 160 3 0.964 6.235289 5.179064 19.161265 0 0 0
479 160 4 -0.482 6.638855 4.822389 19.049832 0 0 0
480 160 4 -0.482 5.831722 5.535738 19.272697 0 0 0
481 161 3 0.964 13.501547 12.382343 16.814999 0 0 0
482 161 4 -0.482 13.892549 12.768941 16.802391 0 0 0
483 161 4 -0.482 13.110544 11.995745 16.827606 0 0 0
484 162 3 0.964 12.995855 6.077541 18.110003 0 0 0
485 162 4 -0.482 13.530214 6.102594 17.982202 0 0 0
486 162 4 -0.482 12.461497 6.052489 18.237804 0 0 0
487 163 3 0.964 8.669613 9.598628 15.363106 0 0 0
488 163 4 -0.482 8.81409 9.429786 14.859997 0 0 0
489 163 4 -0.482 8.525136 9.76747 15.866215 0 0 0
490 164 3 0.964 14.979015 23.073886 13.203527 0 0 0
491 164 4 -0.482 15.080844 23.484932 12.852568 0 0 0
492 164 4 -0.482 14.877185 22.66284 13.554485 0 0 0
493 165 3 0.964 27.361747 25.944787 10.054885 0 0 0
494 165 4 -0.482 27.060758 25.492172 10.138819 0 0 0
495 165 4 -0.482 27.662737 26.397402 9.970952 0 0 0
496 166 3 0.964 12.455821 3.817113 14.982988 0 0 0
497 166 4 -0.482 12.51885 3.991804 14.465291 0 0 0
498 166 4 -0.482 12.392791 3.642422 15.500685 0 0 0
499 167 3 0.964 26.986306 26.039471 19.55974 0 0 0
500 167 4 -0.482 26.585168 26.236774 19.239335 0 0 0
501 167 4 -0.482 27.387445 25.842167 19.880145 0 0 0
502 168 3 0.964 19.972464 13.282127 19.170168 0 0 0
503 168 4 -0.482 19.485547 13.53657 19.196066 0 0 0
504 168 4 -0.482 20.45938 13.027683 19.144271 0 0 0
505 169 3 0.964 9.46862 10.592831 9.978697 0 0 0
506 169 4 -0.482 9.199219 10.130767 10.106835 0 0 0
507 169 4 -0.482 9.738021 11.054896 9.850558 0 0 0
508 170 3 0.964 6.162354 12.48988 14.057403 0 0 0
509 170 4 -0.482 6.383741 12.00741 14.201316 0 0 0
510 170 4 -0.482 5.940967 12.972349 13.91349 0 0 0
511 171 3 0.964 23.49008 11.137134 15.877296 0 0 0
512 171 4 -0.482 23.354383 11.664192 15.797946 0 0 0
513 171 4 -0.482 23.625777 10.610077 15.956646 0 0 0
514 172 3 0.964 18.386517 17.833518 13.314212 0 0 0
515 172 4 -0.482 17.994466 17.617288 13.63365 0 0 0
516 172 4 -0.482 18.778569 18.049749 12.994775 0 0 0
517 173 3 0.964 18.555035 9.245251 10.113649 0 0 0
518 173 4 -0.482 18.050711 9.226981 10.332336 0 0 0
519 173 4 -0.482 19.059359 9.263521 9.894963 0 0 0
520 174 3 0.964 16.481394 4.688184 13.59746 0 0 0
521 174 4 -0.482 16.298632 4.508098 14.083944 0 0 0
522 174 4 -0.482 16.664156 4.868271 13.110976 0 0 0
523 175 3 0.964 15.837657 22.541968 16.328963 0 0 0
524 175 4 -0.482 15.440265 22.76842 16.023514 0 0 0
525 175 4 -0.482 16.235049 22.315516 16.634412 0 0 0
526 176 1 0.7 7.892545 2.597415 15.895121 0 0 0
527 176 2 -0.35 6.926289 3.081084 16.317037 0 0 0
528 176 2 -0.35 8.858802 2.113746 15.473206 0 0 0
529 177 1 0.7 18.102518 24.848702 20.126967 0 0 0
530 177 2 -0.35 17.261625 25.647151 20.095686 0 0 0
531 177 2 -0.35 18.943411 24.050254 20.158248 0 0 0
532 178 1 0.7 18.862649 26.105433 11.125026 0 0 0
533 178 2 -0.35 19.531544 26.825572 11.741127 0 0 0
534 178 2 -0.35 18.193755 25.385294 10.508925 0 0 0
535 179 1 0.7 22.58991 2.033489 10.030684 0 0 0
536 179 2 -0.35 21.447748 2.011726 9.829209 0 0 0
537 179 2 -0.35 23.732072 2.055251 10.23216 0 0 0
538 180 1 0.7 26.661677 11.606823 15.553333 0 0 0
539 180 2 -0.35 26.439821 10.476985 15.412456 0 0 0
540 180 2 -0.35 26.883532 12.736661 15.69421 0 0 0
541 181 1 0.7 9.35794 3.799762 13.213143 0 0 0
542 181 2 -0.35 8.301923 3.319918 13.226395 0 0 0
543 181 2 -0.35 10.413958 4.279606 13.199891 0 0 0
544 182 1 0.7 23.461147 23.210788 19.864555 0 0 0
545 182 2 -0.35 22.32822 23.308049 20.093938 0 0 0
546 182 2 -0.35 24.594074 23.113526 19.635172 0 0 0
547 183 1 0.7 27.102129 2.000171 19.416093 0 0 0
548 183 2 -0.35 27.99351 2.000311 20.158413 0 0 0
549 183 2 -0.35 26.210747 2.000031 18.673773 0 0 0
550 184 1 0.7 16.194441 3.395261 19.494523 0 0 0
551 184 2 -0.35 17.327026 3.395493 19.24382 0 0 0
552 184 2 -0.35 15.061857 3.395028 19.745226 0 0 0
553 185 1 0.7 12.424051 26.218484 13.699593 0 0 0
554 185 2 -0.35 11.667109 25.391152 13.402675 0 0 0
555 185 2 -0.35 13.180993 27.045817 13.99651 0 0 0
556 186 1 0.7 24.213504 14.905592 9.844913 0 0 0
557 186 2 -0.35 23.527267 15.84082 9.839493 0 0 0
558 186 2 -0.35 24.89974 13.970365 9.850333 0 0 0
559 187 1 0.7 12.630271 7.479634 15.380566 0 0 0
560 187 2 -0.35 12.898382 8.381089 14.701526 0 0 0
561 187 2 -0.35 12.362161 6.578178 16.059605 0 0 0
562 188 1 0.7 20.235411 20.839621 19.930223 0 0 0
563 188 2 -0.35 20.711711 21.873655 19.707712 0 0 0
564 188 2 -0.35 19.75911 19.805587 20.152734 0 0 0
565 189 1 0.7 5.15929 18.281516 17.761102 0 0 0
566 189 2 -0.35 5.11369 19.44043 17.740117 0 0 0
567 189 2 -0.35 5.204889 17.122603 17.782088 0 0 0
568 190 1 0.7 24.587769 18.3423 9.974679 0 0 0
569 190 2 -0.35 25.708678 18.640408 9.957543 0 0 0
570 190 2 -0.35 23.466859 18.044191 9.991815 0 0 0
571 191 1 0.7 22.547329 8.243279 17.829315 0 0 0
572 191 2 -0.35 22.913697 7.142718 17.817435 0 0 0
573 191 2 -0.35 22.180962 9.343839 17.841196 0 0 0
574 192 1 0.7 10.507369 20.70437 15.940291 0 0 0
575 192 2 -0.35 10.643563 21.847536 15.798081 0 0 0
576 192 2 -0.35 10.371175 19.561205 16.082501 0 0 0
577 193 1 0.7 10.622842 8.856191 17.961129 0 0 0
578 193 2 -0.35 9.47815 8.855057 18.148956 0 0 0
579 193 2 -0.35 11.767534 8.857325 17.773302 0 0 0
580 194 1 0.7 9.258957 7.458005 19.995471 0 0 0
581 194 2 -0.35 8.179413 7.85697 20.14043 0 0 0
582 194 2 -0.35 10.3385 7.05904 19.850511 0 0 0

Bonds

1 1 1 2
2 1 1 3
3 1 4 5
4 1 4 6
5 1 7 8
6 1 7 9
7 1 10 11
8 1 10 12
9 1 13 14
10 1 13 15
11 1 16 17
12 1 16 18
13 1 19 20
14 1 19 21
15 1 22 23
16 1 22 24
17 1 25 26
18 1 25 27
19 1 28 29