ITEM: TIMESTEP
0
ITEM: NUMBER OF ATOMS
582
ITEM: BOX BOUNDS pp pp pp
0.0000000000000000e+00 3.0000000000000000e+01
0.0000000000000000e+00 3.0000000000000000e+01
0.0000000000000000e+00 3.0000000000000000e+01
ITEM: ATOMS id type xu yu zu
105 4 30.4687 34.6777 9.05781
104 4 31.1789 35.2579 9.66515
103 3 30.8238 34.9678 9.36148
550 1 4.98542 3.05268 8.52634
552 2 4.82577 2.5698 7.48378
570 2 60.9069 6.23162 0.0230327
568 1 61.1003 6.31282 1.16392
569 2 61.2937 6.39401 2.3048
129 4 6.53588 6.28239 8.31552
128 4 7.13261 5.82526 9.11861
127 3 6.83424 6.05383 8.71707
36 4 3.37137 7.28354 8.73406
551 2 5.14508 3.53557 9.5689
35 4 3.22441 7.74396 9.7222
34 3 3.29789 7.51375 9.22813
456 4 6.79827 0.448599 9.01818
454 3 7.17571 0.274433 9.37832
455 4 7.55315 0.100266 9.73847
174 4 8.11699 39.0092 9.32506
173 4 7.92829 39.5515 8.3868
172 3 8.02264 39.2803 8.85593
441 4 16.4774 31.3569 8.82197
439 3 16.0945 31.1823 9.17613
17 4 12.9351 3.72149 9.06515
16 3 13.1839 3.72377 9.55562
483 4 12.1287 8.69161 9.49032
440 4 15.7116 31.0078 9.5303
361 3 16.0305 8.32001 8.57751
363 4 16.0142 8.77071 8.2627
362 4 16.0467 7.8693 8.89231
423 4 19.9435 5.68086 9.53323
481 3 12.0782 8.89827 9.99751
264 4 -4.76054 8.17547 9.44751
262 3 -4.74232 7.88636 9.91503
485 4 29.2769 7.84705 9.72159
310 3 26.6747 34.392 8.75243
312 4 27.0247 34.3437 9.17397
311 4 26.3247 34.4402 8.3309
512 4 23.1063 4.68891 9.97
417 4 20.9105 8.82297 8.38289
415 3 21.1829 8.63149 8.8206
416 4 21.4554 8.44 9.25832
108 4 28.0586 30.0912 9.03205
106 3 28.5802 30.006 9.18409
236 4 -9.75373 32.1774 9.83029
53 4 34.6584 17.2194 9.0484
52 3 34.2699 17.08 8.68496
54 4 33.8813 16.9406 8.32152
60 4 34.004 10.9919 8.19187
59 4 34.2925 11.2696 9.21639
58 3 34.1483 11.1307 8.70413
523 3 7.58613 14.9629 9.80323
524 4 7.58637 14.8923 9.25778
430 3 40.8106 -12.7501 8.85787
431 4 40.6334 -13.2239 8.64211
220 3 11.4924 43.2365 8.97514
221 4 11.1912 43.169 8.51991
222 4 11.7935 43.304 9.43037
142 3 -12.3686 15.0577 9.33005
143 4 -12.5023 14.7675 8.88239
273 4 14.4056 -12.9461 8.81355
272 4 15.0134 -12.0658 8.55768
271 3 14.7095 -12.5059 8.68562
339 4 18.3259 -10.506 9.88964
337 3 18.3243 -10.0857 9.53492
144 4 -12.2349 15.3479 9.77771
432 4 40.9878 -12.2762 9.07362
130 3 -0.571999 11.3017 9.29643
132 4 -1.06196 11.3106 9.04672
131 4 -0.0820345 11.2928 9.54614
1 3 -1.07807 15.4576 8.92521
3 4 -1.09809 15.6066 9.45428
2 4 -1.05806 15.3087 8.39614
153 4 21.9523 15.5614 9.13744
324 4 -5.33913 42.3547 9.34301
151 3 21.7264 15.2541 9.53369
322 3 -5.32395 42.1918 8.81791
515 4 25.9322 17.6603 9.26766
514 3 25.4727 17.4519 9.48652
516 4 25.0132 17.2434 9.70538
152 4 21.5006 14.9467 9.92994
323 4 -5.30877 42.0288 8.29282
74 4 3.79246 -1.40094 9.77931
139 3 7.01632 26.2858 9.38758
140 4 6.96386 26.8315 9.43115
141 4 7.06877 25.74 9.34402
72 4 9.87251 -2.40789 9.19066
338 4 18.3227 -9.66537 9.1802
351 4 10.1993 22.5107 8.20576
349 3 10.2534 22.0932 8.55969
70 3 10.1391 -2.43769 8.71053
71 4 10.4058 -2.46749 8.2304
468 4 14.5712 -2.98294 8.63913
466 3 14.3364 -3.3894 8.92579
467 4 14.1016 -3.79586 9.21244
498 4 -11.5157 -6.43799 9.826
350 4 10.3076 21.6757 8.91362
107 4 29.1019 29.9208 9.33613
277 3 29.5325 51.9026 8.73723
279 4 29.995 51.6204 8.64263
278 4 29.0701 52.1849 8.83183
61 3 -2.90303 25.6681 8.54876
63 4 -2.89102 25.4832 8.03091
499 3 23.5359 22.9975 9.91043
41 4 23.7901 28.4821 9.63751
62 4 -2.91504 25.8531 9.0666
500 4 23.3924 22.8952 9.38944
215 4 25.872 20.7565 9.58339
317 4 8.6607 33.1259 11.9609
316 3 8.23775 33.4156 11.7618
318 4 7.81479 33.7054 11.5627
331 3 4.96057 31.582 12.7978
332 4 4.46916 31.5144 13.0354
333 4 5.45199 31.6497 12.5603
224 4 32.9704 34.3462 11.9593
225 4 32.6473 34.7636 12.9244
223 3 32.8089 34.5549 12.4418
495 4 31.4717 35.386 19.1639
493 3 31.4169 34.9133 18.8881
494 4 31.3621 34.4406 18.6123
530 2 7.0177 6.83243 13.5231
531 2 5.95483 7.19993 11.4939
529 1 6.48627 7.01618 12.5085
123 4 4.40124 4.32499 15.1997
121 3 4.64187 4.6804 15.5436
122 4 4.88249 5.0358 15.8875
329 4 32.8703 37.3096 16.0258
330 4 32.3133 37.5286 16.9487
328 3 32.5918 37.4191 16.4873
386 4 9.45529 9.03825 13.6041
385 3 9.1427 9.34822 13.9338
336 4 35.8652 3.76465 19.0898
334 3 35.9264 3.53518 19.5858
387 4 8.8301 9.65818 14.2636
470 4 7.29512 0.508924 15.16
469 3 7.35975 1.04906 15.241
471 4 7.42438 1.5892 15.3221
175 3 38.5147 5.56069 16.3171
177 4 38.7142 5.18357 16.6642
176 4 38.3152 5.93781 15.97
492 4 30.0016 32.0263 13.7024
82 3 30.1062 30.4766 17.8646
83 4 30.3405 30.1459 17.4928
205 3 8.22403 8.35628 19.9831
207 4 8.23805 8.88672 19.8384
452 4 32.9671 31.1411 16.4262
451 3 33.3689 31.4006 16.6976
453 4 33.7707 31.6602 16.969
18 4 13.4328 3.72605 10.0461
342 4 10.3791 32.0878 17.9326
341 4 10.2508 32.595 18.9002
340 3 10.315 32.3414 18.4164
482 4 12.0277 9.10492 10.5047
522 4 12.2717 6.31538 12.3345
446 4 16.7507 3.13712 12.244
447 4 16.6084 3.71123 13.1714
445 3 16.6795 3.42418 12.7077
520 3 12.2624 5.81179 12.5555
521 4 12.2532 5.30821 12.7764
285 4 15.9269 31.5415 17.1709
283 3 16.2195 31.8292 17.5371
284 4 16.5122 32.1168 17.9033
547 1 43.4406 4.96868 16.0261
549 2 44.5953 5.05146 16.1002
548 2 42.2859 4.8859 15.9521
190 3 -18.4181 0.453054 10.5965
192 4 -18.6515 0.821077 10.261
191 4 -18.1846 0.0850312 10.932
480 4 -12.2084 7.05097 17.3597
479 4 -12.529 8.09509 17.4902
478 3 -12.3687 7.57303 17.4249
413 4 -10.1716 33.333 16.6387
281 4 12.4429 9.78699 16.5874
280 3 12.3001 9.42353 16.9747
282 4 12.1573 9.06006 17.362
414 4 -10.1922 32.3796 17.187
412 3 -10.1819 32.8563 16.9128
422 4 19.506 6.0642 10.4669
421 3 19.7248 5.87253 10
229 3 19.03 8.60187 14.1435
231 4 19.2542 8.52192 14.6394
160 3 14.9418 8.25546 13.069
161 4 15.1476 7.75208 12.9867
230 4 18.8058 8.68182 13.6477
162 4 14.7361 8.75885 13.1512
4 3 11.556 0.202565 14.6986
6 4 11.3161 0.666607 14.5264
546 2 72.8853 5.62332 19.371
484 3 29.2364 7.99479 10.2498
357 4 -0.125617 7.53633 13.981
355 3 -0.100794 8.07897 13.8949
356 4 -0.0759725 8.62162 13.8087
263 4 -4.7241 7.59724 10.3826
486 4 29.196 8.14253 10.7781
511 3 22.9776 5.04196 10.3716
513 4 22.849 5.39501 10.7732
491 4 29.6685 32.8524 13.0571
490 3 29.8351 32.4393 13.3797
237 4 -9.38325 32.3254 10.8554
235 3 -9.56849 32.2514 10.3428
233 4 -3.54382 5.1861 13.9302
232 3 -3.05482 5.10268 14.1677
234 4 -2.56583 5.01926 14.4053
245 4 26.224 7.44561 17.2598
309 4 21.7581 4.46167 13.608
308 4 22.113 3.82518 14.432
307 3 21.9356 4.14342 14.02
246 4 25.6735 7.77257 18.1543
244 3 25.9488 7.60909 17.707
252 4 -6.554 7.29859 14.7985
14 4 24.5507 3.10843 12.5203
15 4 25.1085 3.34671 11.6026
13 3 24.8296 3.22757 12.0615
250 3 -6.55774 7.84699 14.8402
251 4 -6.56148 8.3954 14.8819
407 4 25.2224 4.1892 17.1898
406 3 25.0735 3.85376 17.5994
408 4 24.9245 3.51832 18.009
239 4 21.2663 6.59999 16.92
238 3 21.3726 6.61831 17.4593
240 4 21.479 6.63662 17.9986
200 4 28.6764 39.9534 17.8773
519 4 26.5134 9.76824 12.977
517 3 26.4234 9.63666 13.5033
426 4 22.1248 0.322384 18.2009
201 4 28.642 39.8579 16.782
199 3 28.6592 39.9057 17.3296
518 4 26.3333 9.50508 14.0297
84 4 29.872 30.8073 18.2365
401 4 21.5632 0.243098 14.2639
402 4 22.5896 0.506213 14.5592
400 3 22.0764 0.374656 14.4115
79 3 26.4164 0.408049 14.8132
81 4 26.66 0.896948 14.749
133 3 -3.82472 30.502 18.7096
134 4 -3.51229 30.6561 18.284
135 4 -4.13716 30.3479 19.1353
424 3 22.0834 0.241456 18.7434
425 4 22.042 0.160527 19.2858
525 4 7.5859 15.0335 10.3487
196 3 2.27781 11.4518 19.7524
290 4 5.20586 10.4151 15.923
291 4 5.33083 10.5787 14.8424
289 3 5.26835 10.4969 15.3827
261 4 6.5229 13.8807 13.4028
260 4 5.49878 13.5448 13.1829
259 3 6.01084 13.7127 13.2929
539 2 32.6232 17.2006 15.083
538 1 33.3573 17.1341 15.9787
76 3 7.2402 14.2706 17.7811
77 4 7.70865 14.2295 17.4959
540 2 34.0914 17.0676 16.8744
78 4 6.77174 14.3118 18.0664
448 3 30.5849 18.8897 11.0074
450 4 30.9535 19.2174 10.7641
197 4 2.39088 11.613 19.2389
117 4 7.34004 17.2144 16.2213
115 3 7.5081 17.6928 16.008
116 4 7.67615 18.1711 15.7948
19 3 7.52413 17.6004 11.8843
20 4 7.56591 17.4946 12.4224
449 4 30.2162 18.562 11.2507
21 4 7.48234 17.7061 11.3462
461 4 0.265356 14.9964 17.5879
460 3 0.431387 15.3429 17.9814
462 4 0.597418 15.6895 18.3749
209 4 10.7765 15.639 13.4416
208 3 10.8607 15.6282 13.985
474 4 46.7911 11.3657 15.3012
210 4 10.9449 15.6174 14.5284
119 4 -10.8287 41.3541 10.1659
8 4 14.5841 15.9733 11.991
472 3 46.5479 10.8727 15.3168
473 4 46.3047 10.3796 15.3324
9 4 13.8952 15.4998 11.2761
7 3 14.2397 15.7365 11.6335
118 3 -10.9601 40.826 10.0863
120 4 -11.0915 40.2979 10.0067
155 4 14.8265 42.2748 10.0781
154 3 14.76 42.1334 10.6055
156 4 14.6935 41.9919 11.1328
399 4 11.7981 12.3309 12.3809
397 3 12.1257 12.34 12.8226
398 4 12.4532 12.3492 13.2644
87 4 12.0446 44.0685 18.0684
85 3 12.4567 44.2307 17.7423
86 4 12.8687 44.3929 17.4161
405 4 16.1878 18.1827 15.6335
403 3 16.0423 18.0055 15.1336
404 4 15.8969 17.8282 14.6336
292 3 -14.1477 14.579 14.9643
294 4 -13.722 14.4912 14.6274
293 4 -14.5735 14.6669 15.3012
32 4 19.3375 17.093 13.3069
31 3 19.1004 16.6537 13.5378
33 4 18.8634 16.2143 13.7686
435 4 12.3838 18.4465 15.0627
433 3 11.9775 18.6731 14.7692
434 4 11.5713 18.8997 14.4756
193 3 18.0061 15.6773 17.9672
194 4 17.8933 15.6522 17.4295
195 4 18.1189 15.7025 18.505
319 3 11.3573 47.7369 18.4248
320 4 10.8578 47.5823 18.5953
321 4 11.8569 47.8915 18.2543
226 3 18.8925 -10.0911 15.5219
228 4 18.7357 -10.2596 15.0223
102 4 -2.36739 12.3332 14.3629
100 3 -2.09653 12.6229 13.9818
101 4 -1.82567 12.9125 13.6007
505 3 20.2294 11.9223 15.9913
506 4 20.2843 11.7718 15.4651
476 4 28.4628 16.5988 14.2919
475 3 27.9548 16.8091 14.3075
477 4 27.4468 17.0193 14.323
507 4 20.1745 12.0727 16.5174
185 4 -6.65792 10.7915 11.888
184 3 -7.05765 10.9274 11.5355
186 4 -7.45738 11.0634 11.183
98 4 24.0952 11.8366 15.9088
97 3 24.001 11.7467 15.3744
99 4 23.9069 11.6568 14.84
488 4 -5.86581 16.1817 12.3691
489 4 -5.6347 15.318 11.7283
487 3 -5.75025 15.7498 12.0487
345 4 -3.07272 13.485 17.5485
343 3 -3.37735 13.7562 17.9175
344 4 -3.68198 14.0275 18.2864
219 4 -7.63619 14.4694 14.2644
218 4 -7.83502 14.6032 15.338
217 3 -7.7356 14.5363 14.8012
182 4 -5.11776 18.4439 17.0778
181 3 -5.29642 18.1524 16.647
183 4 -5.47509 17.8608 16.2162
28 3 22.3133 19.1942 10.3041
30 4 21.921 18.8121 10.253
388 3 21.1315 12.6895 19.7865
389 4 21.6724 12.7765 19.8349
29 4 22.7056 19.5763 10.3551
390 4 20.5906 12.6026 19.7381
75 4 4.37721 -1.83461 10.6039
73 3 4.08483 -1.61778 10.1916
429 4 2.21102 24.2181 10.4971
110 4 5.27219 20.7032 12.1929
359 4 8.58754 29.4545 18.6474
358 3 9.03989 29.4225 18.9586
111 4 5.24475 20.5585 13.283
109 3 5.25847 20.6309 12.7379
428 4 1.5963 24.1108 11.4029
427 3 1.90366 24.1645 10.95
96 4 0.348496 -3.18944 13.5132
393 4 35.6247 22.5337 18.0474
266 4 3.50034 25.6945 14.5146
265 3 3.38977 25.1623 14.5988
267 4 3.27919 24.6302 14.683
243 4 5.62723 -2.44819 13.6973
241 3 5.96124 -2.19985 13.3377
242 4 6.29526 -1.95152 12.9782
327 4 7.00571 -5.51607 14.6312
325 3 6.91534 -5.30936 14.1296
326 4 6.82497 -5.10265 13.628
26 4 2.31947 -0.865993 13.7966
25 3 1.94465 -0.856495 13.3943
27 4 1.56982 -0.846998 12.9919
394 3 30.6067 20.73 17.9673
396 4 30.5719 20.3592 18.372
395 4 30.6414 21.1007 17.5625
391 3 35.9947 22.9004 18.2236
56 4 1.40847 25.292 17.4975
55 3 1.37167 25.7776 17.242
57 4 1.33487 26.2633 16.9866
436 3 9.13799 -9.29709 12.8858
437 4 8.90859 -8.82804 13.0586
438 4 9.36739 -9.76613 12.7129
392 4 36.3647 23.2672 18.3999
64 3 1.00832 21.944 14.1284
66 4 1.45557 21.7585 13.8675
65 4 0.56107 22.1296 14.3892
360 4 9.49225 29.3905 19.2698
46 3 39.9262 22.2065 17.3525
48 4 39.6964 22.6711 17.5364
296 4 9.99157 -3.08898 17.056
377 4 9.32851 -3.50985 12.8284
376 3 9.70473 -3.34819 13.1956
496 3 -11.1653 -6.40528 10.2487
497 4 -10.815 -6.37258 10.6714
179 4 16.7605 20.6034 12.0247
375 4 13.4648 -9.67998 10.4216
559 1 79.4467 -2.29307 11.6687
560 2 78.3495 -2.54553 11.3895
378 4 10.081 -3.18652 13.5628
295 3 10.1645 -3.5849 16.8927
297 4 10.3373 -4.08081 16.7293
189 4 15.8097 -0.160384 14.2921
187 3 15.3519 -0.451144 14.3838
373 3 13.4171 -9.14326 10.3113
5 4 11.7958 -0.261476 14.8707
47 4 40.156 21.7419 17.1686
188 4 14.8942 -0.741904 14.4755
374 4 13.3694 -8.60654 10.201
112 3 19.8741 27.733 17.183
113 4 19.9097 28.2232 16.936
114 4 19.8385 27.2429 17.4299
383 4 14.5664 -4.57927 14.7945
382 3 14.3831 -4.30304 14.3556
384 4 14.1998 -4.02682 13.9168
536 2 14.53 -39.1627 16.5245
535 1 15.197 -39.3375 17.4572
227 4 19.0493 -9.9226 16.0214
537 2 15.8641 -39.5123 18.39
304 3 14.4181 -2.81945 17.8186
306 4 14.8082 -2.81744 18.2063
305 4 14.028 -2.82145 17.4309
410 4 16.8197 24.0031 17.2015
409 3 16.4452 23.7265 17.4943
411 4 16.0708 23.4499 17.7872
457 3 -16.7385 -7.86232 13.8945
458 4 -16.4905 -7.44849 14.1586
459 4 -16.9865 -8.27615 13.6305
178 3 16.3818 20.484 12.4053
180 4 16.0031 20.3646 12.7859
211 3 -12.0301 23.1477 13.7164
212 4 -11.7136 22.8877 14.0835
213 4 -12.3466 23.4076 13.3493
367 3 13.2076 -6.34807 19.3256
368 4 13.3417 -6.56403 19.8134
369 4 13.0734 -6.13211 18.8379
380 4 19.7452 24.6618 18.888
379 3 19.7209 24.2186 18.5631
381 4 19.6965 23.7755 18.2382
501 4 23.6794 23.0999 10.4314
40 3 24.063 28.6028 10.0995
42 4 24.336 28.7234 10.5615
216 4 25.795 20.6492 10.6754
561 2 80.544 -2.04062 11.9479
214 3 25.8335 20.7028 10.1294
95 4 -0.595465 -3.40682 14.0344
94 3 -0.123485 -3.29813 13.7738
302 4 21.5047 23.6252 13.7781
303 4 21.5628 24.3202 12.9275
301 3 21.5337 23.9727 13.3528
371 4 -5.7224 -2.36496 17.7246
370 3 -6.15832 -2.66383 17.5724
372 4 -6.59423 -2.96269 17.4202
256 3 23.6898 23.1569 18.4818
257 4 24.2375 23.2044 18.5005
348 4 -3.18199 24.8502 12.3764
80 4 26.1727 -0.0808492 14.8773
147 4 23.1376 20.8992 15.5275
145 3 23.2058 20.6766 15.0292
146 4 23.2741 20.454 14.5309
347 4 -3.76154 24.4325 13.2128
346 3 -3.47177 24.6414 12.7946
315 4 26.7286 22.0419 16.0188
313 3 27.2682 22.1444 16.0474
314 4 27.8079 22.2468 16.0759
258 4 23.1422 23.1095 18.4631
255 4 28.3122 23.2234 18.6882
253 3 28.3723 23.7589 18.7984
254 4 28.4325 24.2944 18.9086
335 4 35.9876 3.3057 20.0819
206 4 8.21001 7.82584 20.1278
567 2 30.6358 4.45035 24.0612
565 1 30.6274 4.37408 25.2187
566 2 30.619 4.2978 26.3761
366 4 3.8135 36.2189 20.8764
364 3 3.67697 36.6531 21.1852
365 4 3.54044 37.0872 21.4941
555 2 9.88727 32.4267 24.65
553 1 9.99903 32.4811 23.4967
527 2 5.04513 9.53741 21.7781
528 2 5.58044 9.14396 24.0009
526 1 5.31278 9.34069 22.8895
554 2 10.1108 32.5356 22.3433
89 4 15.6663 0.30149 21.3467
579 2 17.4053 6.84449 22.0398
544 1 72.5295 5.63742 20.475
545 2 72.1736 5.65153 21.5789
542 2 19.893 3.6118 29.3522
541 1 19.4956 4.25126 28.4698
543 2 19.0981 4.89072 27.5873
578 2 16.0552 7.02625 20.1619
577 1 16.7303 6.93537 21.1008
170 4 19.2677 31.7314 20.5808
171 4 18.9941 32.7958 20.5354
169 3 19.1309 32.2636 20.5581
270 4 27.9256 2.97807 20.4702
268 3 28.3788 3.04416 20.7747
269 4 28.832 3.11025 21.0792
69 4 21.7897 37.6367 21.9282
67 3 21.7762 37.7143 21.3839
68 4 21.7627 37.7918 20.8396
556 1 50.1642 9.43019 26.6507
557 2 50.1456 9.62844 25.5079
503 4 24.3414 8.64523 21.0163
502 3 24.7129 9.02601 21.1559
562 1 58.5579 31.9541 26.8413
564 2 58.7799 31.9307 27.9797
563 2 58.3359 31.9776 25.703
203 4 25.507 35.6271 21.6667
504 4 25.0845 9.40679 21.2954
204 4 25.7633 35.5961 20.5974
202 3 25.6351 35.6116 21.132
93 4 -1.14201 7.79044 20.9754
91 3 -1.48187 7.66887 20.5604
92 4 -1.82173 7.5473 20.1455
558 2 50.1829 9.23193 27.7934
198 4 2.16475 11.2905 20.2659
137 4 8.66788 -13.3886 21.8429
136 3 8.7107 -13.0125 21.4439
138 4 8.75351 -12.6363 21.045
572 2 32.3215 16.7277 24.893
571 1 32.3697 16.9335 26.0336
573 2 32.418 17.1393 27.1741
150 4 8.58865 13.2174 20.7852
148 3 8.5635 13.1234 21.3265
149 4 8.53835 13.0294 21.8678
22 3 15.063 14.1981 21.1631
24 4 14.8915 14.1761 21.6852
23 4 15.2346 14.2201 20.641
126 4 15.92 17.9034 21.8151
124 3 16.2295 17.8535 21.3632
125 4 16.539 17.8036 20.9112
276 4 19.2614 18.0773 21.7949
274 3 19.5195 18.0558 21.3097
275 4 19.7775 18.0344 20.8244
582 2 -1.82988 16.5304 28.9124
299 4 -2.12116 -14.6427 21.8719
298 3 -2.4312 -14.5146 21.436
43 3 -6.19011 15.0535 21.0947
45 4 -6.26971 14.7187 20.6656
44 4 -6.11052 15.3883 21.5237
300 4 -2.74124 -14.3866 21.0002
581 2 -1.7225 17.1741 26.6861
580 1 -1.77619 16.8522 27.7993
532 1 4.80009 59.6451 25.8031
533 2 4.36863 59.759 26.8738
534 2 5.23155 59.5312 24.7324
158 4 8.59962 21.9751 20.5246
248 4 32.3876 23.3519 21.1773
247 3 32.2707 23.0712 20.719
159 4 7.92921 21.1404 20.7772
157 3 8.26442 21.5578 20.6509
249 4 32.1537 22.7905 20.2607
576 2 1.68488 26.8221 25.0089
574 1 1.95662 27.012 23.8973
575 2 2.22837 27.2019 22.7857
463 3 8.38859 25.6554 20.7694
464 4 8.47229 26.0551 20.4009
465 4 8.30489 25.2558 21.1379
90 4 15.803 -0.719709 20.9615
88 3 15.7346 -0.209109 21.1541
167 4 13.6408 21.0851 21.6964
509 4 -10.4785 -2.13615 20.4862
508 3 -10.6484 -2.00286 20.992
510 4 -10.8184 -1.86957 21.4979
168 4 13.3275 20.7493 20.6969
166 3 13.4842 20.9172 21.1967
12 4 17.0664 25.4916 21.6032
10 3 16.8216 25.4556 21.112
11 4 16.5768 25.4197 20.6208
419 4 47.2558 22.2143 21.1884
420 4 48.102 21.639 21.592
418 3 47.6789 21.9267 21.3902
38 4 11.9702 26.6649 20.1101
37 3 12.0387 27.0608 20.4858
39 4 12.1072 27.4566 20.8614
443 4 -1.04683 21.237 20.8372
444 4 -0.557985 21.0171 21.7977
442 3 -0.802407 21.1271 21.3175
288 4 22.454 -3.37814 20.5733
286 3 22.772 -3.82513 20.5333
287 4 23.09 -4.27211 20.4932
49 3 23.2766 20.1013 20.4852
51 4 23.8231 20.161 20.5024
50 4 22.7301 20.0415 20.4679
352 3 -0.721928 27.7549 21.3882
354 4 -0.501213 27.6269 20.9009
165 4 26.4477 26.1029 21.1598
163 3 26.3157 26.3337 20.6783
353 4 -0.942643 27.8829 21.8754
164 4 26.1837 26.5645 20.1968
ITEM: TIMESTEP
10000
ITEM: NUMBER OF ATOMS
582
ITEM: BOX BOUNDS pp pp pp
0.0000000000000000e+00 3.0000000000000000e+01
0.0000000000000000e+00 3.0000000000000000e+01
0.0000000000000000e+00 3.0000000000000000e+01
ITEM: ATOMS id type xu yu zu
129 4 12.5607 0.266767 8.52769
127 3 12.5656 0.594409 8.96942
57 4 -2.06339 37.338 8.486
56 4 -2.15117 36.2456 8.58082
176 4 32.2965 4.66206 8.95444
55 3 -2.10728 36.7918 8.53341
377 4 3.58964 0.471992 8.83981
493 3 37.3711 36.1882 9.37583
494 4 36.9292 36.246 9.69809
175 3 32.3851 4.13323 8.83202
177 4 32.4737 3.6044 8.70961
128 4 12.5705 0.922052 9.41115
108 4 18.5557 31.0926 11.1232
531 2 11.7569 13.3861 2.77044
530 2 11.435 12.9988 5.03511
529 1 11.596 13.1924 3.90277
525 4 17.2302 3.67671 8.43098
106 3 19.0544 30.908 11.2638
107 4 19.553 30.7233 11.4044
523 3 17.1172 4.1449 8.69657
524 4 17.0043 4.61309 8.96216
474 4 44.4495 9.77672 9.60901
472 3 44.3468 9.95399 9.09858
473 4 44.2442 10.1313 8.58815
310 3 23.6302 36.5438 8.5757
312 4 23.8271 36.376 8.09033
311 4 23.4334 36.7117 9.06107
362 4 21.0552 4.28571 9.2233
361 3 21.4425 4.04211 8.91812
363 4 21.8298 3.7985 8.61293
513 4 26.8016 1.76875 8.68464
511 3 26.5423 2.1729 8.9528
15 4 30.2707 0.826209 8.19222
14 4 30.2393 0.659777 9.2791
13 3 30.255 0.742993 8.73566
195 4 21.6349 7.40829 11.6871
193 3 21.9002 7.00588 11.952
512 4 26.283 2.57705 9.22095
82 3 36.2269 41.3144 8.63687
83 4 35.9681 41.1649 8.17517
84 4 36.4857 41.464 9.09858
35 4 1.95502 17.6317 8.68486
34 3 1.86078 17.6623 9.22586
569 2 67.1714 15.3382 9.79182
60 4 40.2561 10.5843 8.09503
58 3 40.1281 10.7059 8.61592
70 3 4.9189 -9.86537 8.84151
71 4 5.06038 -9.60726 8.3769
252 4 1.26048 10.5618 10.3405
250 3 1.60825 10.2599 10.0397
251 4 1.95602 9.95804 9.739
59 4 40 10.8274 9.13682
72 4 4.77743 -10.1235 9.30612
36 4 1.76653 17.693 9.76686
64 3 -1.54374 20.2901 8.59657
66 4 -1.48332 20.8023 8.7875
349 3 10.085 18.6605 8.64826
350 4 10.2718 18.3724 8.21855
351 4 9.89825 18.9485 9.07797
550 1 -12.3016 13.897 6.72676
552 2 -11.4334 14.5894 7.06222
551 2 -13.1697 13.2046 6.3913
482 4 21.925 12.3479 9.18149
431 4 45.8246 -11.6904 9.10788
430 3 46.0746 -11.9997 8.72795
432 4 46.3246 -12.309 8.34802
73 3 12.277 21.2118 10.402
75 4 12.487 21.7059 10.2825
74 4 12.067 20.7177 10.5214
481 3 21.7447 12.1805 8.68957
291 4 11.6406 13.7789 9.04494
290 4 10.5551 13.8451 9.20997
289 3 11.0978 13.812 9.12746
483 4 21.5644 12.0132 8.19765
8 4 17.532 11.2886 9.01809
9 4 17.9619 10.6707 8.216
7 3 17.7469 10.9797 8.61705
416 4 27.654 10.8509 10.6284
415 3 27.8674 10.9852 10.1396
417 4 28.0808 11.1194 9.65078
153 4 26.8714 16.7404 9.6829
151 3 26.6355 17.236 9.64726
322 3 0.401017 43.6145 8.97999
152 4 26.3996 17.7316 9.61161
323 4 0.12147 43.5488 8.5109
324 4 0.680565 43.6801 9.44909
346 3 -9.84682 18.2619 8.81449
348 4 -9.77482 18.481 8.31518
338 4 25.2306 -15.9918 8.29346
337 3 25.4211 -16.3726 8.64156
339 4 25.6115 -16.7535 8.98966
194 4 22.1655 6.60348 12.2169
347 4 -9.91882 18.0428 9.31379
65 4 -1.60416 19.7779 8.40565
216 4 32.2229 23.4459 9.65904
376 3 3.76138 0.558276 9.35514
378 4 3.93312 0.644558 9.87047
111 4 5.30297 27.1919 10.2682
110 4 5.90039 27.1679 9.34489
109 3 5.60168 27.1799 9.80655
296 4 8.41868 -8.10502 9.46439
295 3 8.44534 -7.88051 8.96301
297 4 8.472 -7.65601 8.46162
574 1 2.33888 27.9169 5.26968
576 2 2.41413 28.0414 4.11884
471 4 10.031 -2.46155 9.10816
470 4 9.07316 -2.68856 8.61717
469 3 9.55206 -2.57505 8.86266
575 2 2.26363 27.7924 6.42053
278 4 40.3926 53.2709 12.7058
441 4 16.5107 28.6878 9.92635
439 3 16.5596 28.9654 9.45407
440 4 16.6085 29.243 8.98179
191 4 -9.34664 -5.00111 9.48189
190 3 -9.35338 -4.81234 8.96535
192 4 -9.36013 -4.62356 8.4488
468 4 16.2122 -5.10303 9.07289
466 3 16.4446 -4.62461 9.21296
467 4 16.677 -4.1462 9.35304
237 4 -7.87043 22.481 10.1261
235 3 -8.07397 22.0428 10.389
61 3 -4.57682 26.3874 9.18904
315 4 28.7166 24.2993 8.96541
313 3 28.4244 24.0615 9.36615
62 4 -4.47721 26.1618 8.6974
314 4 28.1323 23.8237 9.7669
236 4 -8.27752 21.6047 10.6518
374 4 22.7786 -0.718785 9.57908
28 3 25.0655 20.8944 8.94636
30 4 25.0801 20.6423 8.45774
29 4 25.0508 21.1464 9.43498
134 4 -0.998597 28.1526 10.4953
81 4 36.4312 2.7748 12.1728
79 3 36.3522 2.6839 11.6361
105 4 34.6539 38.0831 9.08621
80 4 36.2731 2.593 11.0995
103 3 34.2207 37.8753 8.81859
104 4 33.7874 37.6675 8.55097
317 4 1.01892 30.4479 17.2133
316 3 1.2538 30.289 16.742
318 4 1.48869 30.1302 16.2708
331 3 7.98458 38.2383 15.9353
333 4 7.85648 38.1824 16.4673
224 4 34.0765 36.8071 14.8006
225 4 34.6341 37.4282 15.5171
223 3 34.3553 37.1176 15.1588
495 4 37.8131 36.1305 9.05357
245 4 34.6116 11.1489 17.0715
27 4 1.9371 1.9961 12.703
25 3 2.21708 2.12245 13.1592
26 4 2.49705 2.2488 13.6155
244 3 34.2579 11.1057 16.6525
386 4 5.92808 4.59831 17.4753
385 3 6.05584 4.30016 17.0312
546 2 69.4989 3.49597 7.61201
545 2 69.7631 3.10138 9.88289
544 1 69.631 3.29868 8.74745
387 4 6.1836 4.002 16.587
332 4 8.11268 38.2942 15.4034
285 4 10.3926 33.9705 16.5088
566 2 32.2697 6.29695 17.4763
565 1 31.7436 5.79392 18.3795
246 4 33.9042 11.0626 16.2335
357 4 8.85073 5.8081 13.5883
355 3 8.79787 5.63824 13.0678
335 4 34.6002 0.871118 21.2429
567 2 31.2176 5.29089 19.2828
283 3 9.92846 34.2594 16.5694
98 4 30.8973 9.29862 14.5063
188 4 8.87875 0.137168 11.0817
187 3 8.54042 0.249139 10.6628
547 1 37.774 1.04136 15.4243
548 2 37.4607 0.557674 16.431
189 4 8.20209 0.361109 10.2439
549 2 38.0872 1.52505 14.4175
334 3 34.3525 1.34465 21.1127
18 4 13.5851 11.0794 14.5556
356 4 8.74502 5.46838 12.5474
284 4 9.46434 34.5482 16.63
446 4 11.7582 2.53803 13.4266
445 3 11.4975 2.9376 13.153
447 4 11.2368 3.33717 12.8793
560 2 75.5498 1.94448 10.5568
281 4 11.182 5.94664 9.4337
280 3 11.0015 6.42959 9.24212
282 4 10.8211 6.91253 9.05054
559 1 75.584 1.41335 11.5875
561 2 75.6182 0.882221 12.6182
261 4 16.0371 4.02808 13.5094
260 4 15.1254 3.75327 14.0601
259 3 15.5813 3.89068 13.7847
384 4 12.2841 0.176418 15.7928
509 4 -13.239 2.72532 17.613
508 3 -13.4591 2.23196 17.5098
480 4 -15.5794 7.81944 14.0707
479 4 -14.7777 7.08556 14.24
478 3 -15.1786 7.4525 14.1554
53 4 39.0194 8.01776 20.7911
383 4 13.2223 0.745347 15.8707
382 3 12.7532 0.460883 15.8318
498 4 -10.4822 5.01219 12.5797
340 3 15.586 38.1279 17.5482
342 4 15.8217 38.2664 17.071
399 4 11.7793 7.64488 17.0502
397 3 11.8371 7.67399 17.5963
425 4 19.0099 0.394006 16.3512
426 4 19.8988 -0.211156 16.5827
424 3 19.4543 0.091425 16.4669
52 3 38.6017 8.27492 21.04
54 4 38.1841 8.53209 21.2889
341 4 15.3502 37.9894 18.0254
271 3 18.3305 -22.4112 10.3449
272 4 18.0781 -22.6494 10.7716
422 4 18.7698 5.55305 18.3631
398 4 11.895 7.70309 18.1425
542 2 12.7895 0.720525 20.9069
173 4 23.4357 31.87 12.1807
172 3 23.0209 31.9921 11.8407
95 4 -3.23707 4.93131 11.9748
174 4 22.6061 32.1141 11.5008
94 3 -3.15276 4.56656 12.3777
96 4 -3.06846 4.2018 12.7807
448 3 27.0428 29.9716 12.3975
450 4 26.9235 29.8308 11.8794
449 4 27.162 30.1125 12.9156
273 4 18.5829 -22.1731 9.91811
496 3 -10.5438 4.70998 13.0351
497 4 -10.6054 4.40778 13.4905
562 1 60.464 35.0721 14.4838
564 2 60.0423 34.9074 15.5518
366 4 -2.60403 32.8006 15.7585
364 3 -2.76566 33.205 16.0945
365 4 -2.92729 33.6093 16.4305
563 2 60.8857 35.2368 13.4158
423 4 19.4526 5.38699 17.5168
421 3 19.1112 5.47002 17.9399
309 4 23.7614 -0.279173 15.9526
308 4 23.7335 -1.2324 16.5008
307 3 23.7475 -0.755786 16.2267
239 4 23.3347 4.98181 18.1549
238 3 23.5095 5.05061 17.638
240 4 23.6844 5.11941 17.1211
518 4 28.4051 8.58129 12.6763
489 4 -2.84534 6.68187 16.3717
487 3 -3.18714 7.05554 16.5862
488 4 -3.52893 7.42921 16.8008
519 4 27.7612 8.15855 13.4616
517 3 28.0832 8.36992 13.0689
255 4 28.4696 31.9446 19.9549
253 3 28.2505 32.3629 20.2369
254 4 28.0314 32.7812 20.519
185 4 -7.1497 7.62618 15.2966
184 3 -6.7026 7.91821 15.4282
186 4 -6.2555 8.21024 15.5598
373 3 22.8767 -0.678276 9.03943
375 4 22.9749 -0.637768 8.49978
557 2 58.495 11.3002 19.0819
556 1 58.6407 10.8009 18.045
558 2 58.7863 10.3017 17.0081
568 1 67.6486 15.5555 10.8266
300 4 1.56796 -15.8406 20.6839
299 4 1.61391 -15.8274 21.7829
298 3 1.59093 -15.834 21.2334
97 3 31.192 9.66475 14.2205
99 4 31.4867 10.0309 13.9348
570 2 68.1257 15.7728 11.8613
266 4 5.49853 17.8184 12.728
267 4 5.41416 16.7217 12.7421
265 3 5.45634 17.27 12.7351
492 4 35.1567 43.8571 14.3425
491 4 35.6486 44.027 13.3734
490 3 35.4027 43.9421 13.8579
485 4 32.63 16.1014 15.9642
1 3 3.73304 20.288 15.9153
3 4 3.61289 20.2711 16.4518
2 4 3.8532 20.3049 15.3789
484 3 32.4364 16.6118 16.0317
486 4 32.2428 17.1222 16.0992
319 3 8.27144 45.1023 18.3948
320 4 8.60444 44.6844 18.5251
321 4 7.93843 45.5202 18.2644
503 4 37.1487 8.57111 11.8579
502 3 36.9534 9.01477 12.1177
504 4 36.758 9.45843 12.3775
222 4 9.93386 43.1627 13.246
220 3 9.50995 43.1088 12.8998
221 4 9.08603 43.0548 12.5535
269 4 32.0405 17.1947 20.0554
21 4 7.38197 11.4869 15.0255
132 4 2.69782 14.3064 12.2096
130 3 2.60248 14.662 12.6183
131 4 2.50714 15.0175 13.0269
197 4 6.34149 23.8907 10.816
461 4 7.1914 20.0442 20.9295
196 3 6.20902 23.8864 10.2822
227 4 9.33618 -9.76486 13.2778
17 4 12.9211 11.344 13.7194
16 3 13.2531 11.2117 14.1375
160 3 18.9003 11.3566 12.5744
161 4 18.6188 11.5148 12.1292
162 4 19.1818 11.1984 13.0196
20 4 7.57333 11.3245 16.0965
19 3 7.47765 11.4057 15.561
76 3 12.4511 17.7659 11.2632
77 4 11.978 17.7047 10.9896
78 4 12.9243 17.8272 11.5368
435 4 14.7425 16.0677 17.1044
433 3 14.3443 16.1078 16.7271
126 4 18.6792 9.43866 18.0992
124 3 18.6166 9.76714 18.5359
125 4 18.5541 10.0956 18.9726
438 4 16.8561 -17.3893 17.6259
434 4 13.9462 16.148 16.3498
436 3 16.794 -17.3375 17.0819
437 4 16.7318 -17.2857 16.5379
209 4 16.5265 14.9566 11.9947
208 3 16.3405 15.3306 11.6368
210 4 16.1545 15.7045 11.2789
147 4 19.2655 16.4642 17.3862
145 3 18.9256 16.4431 16.9543
146 4 18.5857 16.4219 16.5224
420 4 42.4751 11.6911 18.0377
418 3 42.2781 11.617 17.5295
419 4 42.0811 11.5429 17.0214
32 4 19.8245 18.5326 13.4291
226 3 9.22064 -10.2044 12.968
228 4 9.10511 -10.6439 12.6582
69 4 26.4104 42.5902 14.3517
67 3 26.2833 42.5088 14.8806
68 4 26.1562 42.4275 15.4095
232 3 -0.811733 14.5894 15.9659
234 4 -0.548192 14.3059 15.5752
233 4 -1.07527 14.8729 16.3567
155 4 19.8896 45.546 11.5703
154 3 20.1133 45.2756 11.1468
156 4 20.337 45.0052 10.7233
264 4 -1.56162 14.3611 11.9604
262 3 -1.37477 13.9785 12.3086
522 4 20.4331 12.4326 15.8345
520 3 20.7905 12.3939 15.4182
521 4 21.1478 12.3552 15.0019
119 4 -7.70626 45.895 13.675
118 3 -8.07568 45.6705 14.015
263 4 -1.18792 13.5959 12.6567
515 4 30.1189 17.8802 12.8447
514 3 30.033 18.3241 12.5317
516 4 29.947 18.7681 12.2186
120 4 -8.44511 45.446 14.3551
142 3 -6.03641 11.9327 11.7889
143 4 -5.58206 12.0857 11.5194
144 4 -6.49076 11.7796 12.0585
101 4 -6.88028 15.6054 18.0429
182 4 -4.10096 17.9168 13.0277
181 3 -4.64944 17.9358 12.9916
183 4 -5.19792 17.9549 12.9555
257 4 22.0132 18.9178 18.5738
256 3 22.2597 18.721 19.0245
258 4 22.5061 18.5243 19.4751
201 4 24.4728 42.1841 21.8544
199 3 24.4785 42.5466 21.4408
102 4 -6.106 15.9195 17.3275
100 3 -6.49314 15.7624 17.6852
91 3 -3.58566 18.3658 16.6575
92 4 -3.33254 18.783 16.4037
93 4 -3.83879 17.9486 16.9112
215 4 31.7465 22.6636 9.04989
214 3 31.9847 23.0548 9.35447
354 4 4.01965 29.5541 14.1945
352 3 4.18295 29.5156 13.6707
353 4 4.34624 29.4771 13.1469
539 2 36.8627 21.7764 13.7305
198 4 6.07654 23.8821 9.74846
456 4 3.94124 -3.4961 15.5491
540 2 37.4023 21.4274 15.9597
454 3 4.17135 -3.85925 15.2061
455 4 4.40146 -4.22241 14.863
538 1 37.1325 21.6019 14.8451
533 2 1.67696 52.3087 13.6447
248 4 34.1335 21.6799 11.9899
532 1 2.16967 52.7787 14.5838
534 2 2.66238 53.2487 15.523
247 3 33.9091 21.1785 11.9629
249 4 33.6848 20.6771 11.936
38 4 4.99947 28.7903 18.3488
137 4 8.85002 -8.20797 19.1549
4 3 9.09795 -5.1752 16.3839
5 4 8.9163 -5.2694 15.8734
396 4 30.8389 25.4141 18.2397
37 3 4.53396 28.8931 18.6231
39 4 4.06845 28.9958 18.8974
138 4 9.68232 -7.72168 18.625
136 3 9.26617 -7.96483 18.8899
463 3 3.90969 20.0457 21.1348
464 4 3.82043 20.3751 20.7035
277 3 40.0289 53.228 13.1161
279 4 39.6652 53.1851 13.5265
510 4 -13.6792 1.73859 17.4066
179 4 16.6045 21.4177 9.03608
178 3 16.642 21.3366 8.49339
305 4 12.7675 -8.26423 14.6927
326 4 15.5383 -8.27295 13.4673
325 3 15.783 -7.83367 13.2444
327 4 16.0276 -7.3944 13.0215
31 3 20.0862 18.4282 13.9015
33 4 20.3479 18.3237 14.3738
304 3 12.3654 -8.57706 14.4857
410 4 11.1459 26.2895 11.7079