LAMMPS (29 Aug 2024)
OMP_NUM_THREADS environment is not set. Defaulting to 1 thread. (src/comm.cpp:98)
  using 1 OpenMP thread(s) per MPI task
variable cutoff index 15

units       real
dimension   3
boundary    p p p

atom_style  full

pair_style lj/cut/coul/long ${cutoff}
pair_style lj/cut/coul/long 15
kspace_style pppm 1.0e-5
pair_modify     table 0

read_data       ./initialMD.data
Reading data file ...
  orthogonal box = (0 0 0) to (30 30 30)
  1 by 1 by 1 MPI processor grid
  reading atoms ...
  582 atoms
  scanning bonds ...
  2 = max bonds/atom
  orthogonal box = (0 0 0) to (30 30 30)
  1 by 1 by 1 MPI processor grid
  reading bonds ...
  388 bonds
Finding 1-2 1-3 1-4 neighbors ...
  special bond factors lj:    0        0        0       
  special bond factors coul:  0        0        0       
     2 = max # of 1-2 neighbors
     1 = max # of 1-3 neighbors
     1 = max # of 1-4 neighbors
     2 = max # of special neighbors
  special bonds CPU = 0.000 seconds
  read_data CPU = 0.005 seconds

group co2 type 1 2
57 atoms in group co2
group groupC type 1
19 atoms in group groupC
group groupO type 2
38 atoms in group groupO
group n2 type 3 4
525 atoms in group n2
group groupX type 3
175 atoms in group groupX
group groupN type 4
350 atoms in group groupN


# --------------------- defining the potential (TraPPE) ---------------------

dielectric   1.0

pair_modify shift yes

pair_coeff 1 1 0.053654828567 2.8000
pair_coeff 2 2 0.156990053954 3.0500
pair_coeff 3 3 0.0 0.0
pair_coeff 4 4 0.07153943229  3.31

pair_coeff 1 2 0.091778398502 2.9250
pair_coeff 1 3 0.0 0.0
pair_coeff 1 4 0.06195511258 3.055
pair_coeff 2 3 0.0 0.0
pair_coeff 2 4 0.10597631497 3.18
pair_coeff 3 4 0.0 0.0

# --------------------- simulation/thermostat details ---------------------

neighbor 2.0 bin
neigh_modify delay 5 every 1 check yes

run_style verlet

timestep      0.5 # for equilibration, later set to 1.0

variable      temperature equal 269.7457

variable      timeequil equal  80000
variable      timerun equal   10000000
variable      tdamp equal  200.0


# --------------------- output style ---------------------

thermo           100
thermo_style     custom step temp pe ke enthalpy lx vol press
thermo_modify flush yes


# --------------------- initialise  ---------------------

velocity all create ${temperature} 432567 dist uniform loop geom
velocity all create 269.7457 432567 dist uniform loop geom

fix NVT all rigid/nvt molecule temp ${temperature} ${temperature} ${tdamp}
fix NVT all rigid/nvt molecule temp 269.7457 ${temperature} ${tdamp}
fix NVT all rigid/nvt molecule temp 269.7457 269.7457 ${tdamp}
fix NVT all rigid/nvt molecule temp 269.7457 269.7457 200
  194 rigid bodies with 582 atoms


# --------------------- add external potential  ---------------------

fix walllo groupC wall/lj93 zlo 7.83695 0.2604081366812073 1 5.0 units box pbc yes
fix wallhi groupC wall/lj93 zhi 22.16305 0.2604081366812073 1 5.0 units box pbc yes
fix walllo groupX wall/lj93 zlo 7.83695 0.2604081366812073 1 5.0 units box pbc yes
WARNING: Replacing a fix, but new group != old group (src/modify.cpp:880)
fix wallhi groupX wall/lj93 zhi 22.16305 0.2604081366812073 1 5.0 units box pbc yes
WARNING: Replacing a fix, but new group != old group (src/modify.cpp:880)

variable        z_iter  file ./zbins.txt
variable        forceO  file ./forceO.txt
variable        forceX  file ./forceX.txt
variable        forceC  file ./forceC.txt
variable        forceN  file ./forceN.txt
variable        imax equal 2000
variable        i loop ${imax}
variable        i loop 2000

label           start_of_loop_1
variable        binlo equal ${z_iter}
variable        binlo equal 0.000000000000000000e+00
next            z_iter
region          reg_ez${i} block INF INF INF INF ${binlo} ${z_iter} units box
region          reg_ez1 block INF INF INF INF ${binlo} ${z_iter} units box
region          reg_ez1 block INF INF INF INF 0 ${z_iter} units box
region          reg_ez1 block INF INF INF INF 0 1.499999999999999944e-02 units box
fix             addforceO${i} groupO addforce 0.0 0.0 ${forceO} region reg_ez${i}
fix             addforceO1 groupO addforce 0.0 0.0 ${forceO} region reg_ez${i}
fix             addforceO1 groupO addforce 0.0 0.0 -4.503568743728010304e+01 region reg_ez${i}
fix             addforceO1 groupO addforce 0.0 0.0 -4.503568743728010304e+01 region reg_ez1
fix             addforceX${i} groupX addforce 0.0 0.0 ${forceX} region reg_ez${i}
fix             addforceX1 groupX addforce 0.0 0.0 ${forceX} region reg_ez${i}
fix             addforceX1 groupX addforce 0.0 0.0 1.240411505415598583e+02 region reg_ez${i}
fix             addforceX1 groupX addforce 0.0 0.0 1.240411505415598583e+02 region reg_ez1
fix             addforceC${i} groupC addforce 0.0 0.0 ${forceC} region reg_ez${i}
fix             addforceC1 groupC addforce 0.0 0.0 ${forceC} region reg_ez${i}
fix             addforceC1 groupC addforce 0.0 0.0 9.007137487456020608e+01 region reg_ez${i}
fix             addforceC1 groupC addforce 0.0 0.0 9.007137487456020608e+01 region reg_ez1
fix             addforceN${i} groupN addforce 0.0 0.0 ${forceN} region reg_ez${i}
fix             addforceN1 groupN addforce 0.0 0.0 ${forceN} region reg_ez${i}
fix             addforceN1 groupN addforce 0.0 0.0 -6.202057527077992916e+01 region reg_ez${i}
fix             addforceN1 groupN addforce 0.0 0.0 -6.202057527077992916e+01 region reg_ez1
next            forceO
next            forceX
next            forceC
next            forceN
next            i
jump            SELF start_of_loop_1
variable        binlo equal ${z_iter}
variable        binlo equal 1.499999999999999944e-02
next            z_iter
region          reg_ez${i} block INF INF INF INF ${binlo} ${z_iter} units box
region          reg_ez2 block INF INF INF INF ${binlo} ${z_iter} units box
region          reg_ez2 block INF INF INF INF 0.015 ${z_iter} units box
region          reg_ez2 block INF INF INF INF 0.015 2.999999999999999889e-02 units box
fix             addforceO${i} groupO addforce 0.0 0.0 ${forceO} region reg_ez${i}
fix             addforceO2 groupO addforce 0.0 0.0 ${forceO} region reg_ez${i}
fix             addforceO2 groupO addforce 0.0 0.0 -4.498695923506602412e+01 region reg_ez${i}
fix             addforceO2 groupO addforce 0.0 0.0 -4.498695923506602412e+01 region reg_ez2
fix             addforceX${i} groupX addforce 0.0 0.0 ${forceX} region reg_ez${i}
fix             addforceX2 groupX addforce 0.0 0.0 ${forceX} region reg_ez${i}
fix             addforceX2 groupX addforce 0.0 0.0 1.239069391503035149e+02 region reg_ez${i}
fix             addforceX2 groupX addforce 0.0 0.0 1.239069391503035149e+02 region reg_ez2
fix             addforceC${i} groupC addforce 0.0 0.0 ${forceC} region reg_ez${i}
fix             addforceC2 groupC addforce 0.0 0.0 ${forceC} region reg_ez${i}
fix             addforceC2 groupC addforce 0.0 0.0 8.997391847013204824e+01 region reg_ez${i}
fix             addforceC2 groupC addforce 0.0 0.0 8.997391847013204824e+01 region reg_ez2
fix             addforceN${i} groupN addforce 0.0 0.0 ${forceN} region reg_ez${i}
fix             addforceN2 groupN addforce 0.0 0.0 ${forceN} region reg_ez${i}
fix             addforceN2 groupN addforce 0.0 0.0 -6.195346957515175745e+01 region reg_ez${i}
fix             addforceN2 groupN addforce 0.0 0.0 -6.195346957515175745e+01 region reg_ez2
next            forceO
next            forceX
next            forceC
next            forceN
next            i
jump            SELF start_of_loop_1
variable        binlo equal ${z_iter}
variable        binlo equal 2.999999999999999889e-02
next            z_iter
region          reg_ez${i} block INF INF INF INF ${binlo} ${z_iter} units box
region          reg_ez3 block INF INF INF INF ${binlo} ${z_iter} units box
region          reg_ez3 block INF INF INF INF 0.03 ${z_iter} units box
region          reg_ez3 block INF INF INF INF 0.03 4.499999999999999833e-02 units box
fix             addforceO${i} groupO addforce 0.0 0.0 ${forceO} region reg_ez${i}
fix             addforceO3 groupO addforce 0.0 0.0 ${forceO} region reg_ez${i}
fix             addforceO3 groupO addforce 0.0 0.0 -4.488960212669189787e+01 region reg_ez${i}
fix             addforceO3 groupO addforce 0.0 0.0 -4.488960212669189787e+01 region reg_ez3
fix             addforceX${i} groupX addforce 0.0 0.0 ${forceX} region reg_ez${i}
fix             addforceX3 groupX addforce 0.0 0.0 ${forceX} region reg_ez${i}
fix             addforceX3 groupX addforce 0.0 0.0 1.236387898575085273e+02 region reg_ez${i}
fix             addforceX3 groupX addforce 0.0 0.0 1.236387898575085273e+02 region reg_ez3
fix             addforceC${i} groupC addforce 0.0 0.0 ${forceC} region reg_ez${i}
fix             addforceC3 groupC addforce 0.0 0.0 ${forceC} region reg_ez${i}
fix             addforceC3 groupC addforce 0.0 0.0 8.977920425338379573e+01 region reg_ez${i}
fix             addforceC3 groupC addforce 0.0 0.0 8.977920425338379573e+01 region reg_ez3
fix             addforceN${i} groupN addforce 0.0 0.0 ${forceN} region reg_ez${i}
fix             addforceN3 groupN addforce 0.0 0.0 ${forceN} region reg_ez${i}
fix             addforceN3 groupN addforce 0.0 0.0 -6.181939492875426367e+01 region reg_ez${i}
fix             addforceN3 groupN addforce 0.0 0.0 -6.181939492875426367e+01 region reg_ez3
next            forceO
next            forceX
next            forceC
next            forceN
next            i
jump            SELF start_of_loop_1
variable        binlo equal ${z_iter}
variable        binlo equal 4.499999999999999833e-02
next            z_iter
region          reg_ez${i} block INF INF INF INF ${binlo} ${z_iter} units box
region          reg_ez4 block INF INF INF INF ${binlo} ${z_iter} units box
region          reg_ez4 block INF INF INF INF 0.045 ${z_iter} units box
region          reg_ez4 block INF INF INF INF 0.045 6.000000000000000472e-02 units box
fix             addforceO${i} groupO addforce 0.0 0.0 ${forceO} region reg_ez${i}
fix             addforceO4 groupO addforce 0.0 0.0 ${forceO} region reg_ez${i}
fix             addforceO4 groupO addforce 0.0 0.0 -4.479244339553224563e+01 region reg_ez${i}
fix             addforceO4 groupO addforce 0.0 0.0 -4.479244339553224563e+01 region reg_ez4
fix             addforceX${i} groupX addforce 0.0 0.0 ${forceX} region reg_ez${i}
fix             addforceX4 groupX addforce 0.0 0.0 ${forceX} region reg_ez${i}
fix             addforceX4 groupX addforce 0.0 0.0 1.233711869522630877e+02 region reg_ez${i}
fix             addforceX4 groupX addforce 0.0 0.0 1.233711869522630877e+02 region reg_ez4
fix             addforceC${i} groupC addforce 0.0 0.0 ${forceC} region reg_ez${i}
fix             addforceC4 groupC addforce 0.0 0.0 ${forceC} region reg_ez${i}
fix             addforceC4 groupC addforce 0.0 0.0 8.958488679106449126e+01 region reg_ez${i}
fix             addforceC4 groupC addforce 0.0 0.0 8.958488679106449126e+01 region reg_ez4
fix             addforceN${i} groupN addforce 0.0 0.0 ${forceN} region reg_ez${i}
fix             addforceN4 groupN addforce 0.0 0.0 ${forceN} region reg_ez${i}
fix             addforceN4 groupN addforce 0.0 0.0 -6.168559347613154387e+01 region reg_ez${i}
fix             addforceN4 groupN addforce 0.0 0.0 -6.168559347613154387e+01 region reg_ez4
next            forceO
next            forceX
next            forceC
next            forceN
next            i
jump            SELF start_of_loop_1
variable        binlo equal ${z_iter}
variable        binlo equal 6.000000000000000472e-02
next            z_iter
region          reg_ez${i} block INF INF INF INF ${binlo} ${z_iter} units box
region          reg_ez5 block INF INF INF INF ${binlo} ${z_iter} units box
region          reg_ez5 block INF INF INF INF 0.06 ${z_iter} units box
region          reg_ez5 block INF INF INF INF 0.06 7.499999999999998335e-02 units box
fix             addforceO${i} groupO addforce 0.0 0.0 ${forceO} region reg_ez${i}
fix             addforceO5 groupO addforce 0.0 0.0 ${forceO} region reg_ez${i}
fix             addforceO5 groupO addforce 0.0 0.0 -4.469548261222371366e+01 region reg_ez${i}
fix             addforceO5 groupO addforce 0.0 0.0 -4.469548261222371366e+01 region reg_ez5
fix             addforceX${i} groupX addforce 0.0 0.0 ${forceX} region reg_ez${i}
fix             addforceX5 groupX addforce 0.0 0.0 ${forceX} region reg_ez${i}
fix             addforceX5 groupX addforce 0.0 0.0 1.231041292519548733e+02 region reg_ez${i}
fix             addforceX5 groupX addforce 0.0 0.0 1.231041292519548733e+02 region reg_ez5
fix             addforceC${i} groupC addforce 0.0 0.0 ${forceC} region reg_ez${i}
fix             addforceC5 groupC addforce 0.0 0.0 ${forceC} region reg_ez${i}
fix             addforceC5 groupC addforce 0.0 0.0 8.939096522444742732e+01 region reg_ez${i}
fix             addforceC5 groupC addforce 0.0 0.0 8.939096522444742732e+01 region reg_ez5
fix             addforceN${i} groupN addforce 0.0 0.0 ${forceN} region reg_ez${i}
fix             addforceN5 groupN addforce 0.0 0.0 ${forceN} region reg_ez${i}
fix             addforceN5 groupN addforce 0.0 0.0 -6.155206462597743666e+01 region reg_ez${i}
fix             addforceN5 groupN addforce 0.0 0.0 -6.155206462597743666e+01 region reg_ez5
next            forceO
next            forceX
next            forceC
next            forceN
next            i
jump            SELF start_of_loop_1
variable        binlo equal ${z_iter}
variable        binlo equal 7.499999999999998335e-02
next            z_iter
region          reg_ez${i} block INF INF INF INF ${binlo} ${z_iter} units box
region          reg_ez6 block INF INF INF INF ${binlo} ${z_iter} units box
region          reg_ez6 block INF INF INF INF 0.075 ${z_iter} units box
region          reg_ez6 block INF INF INF INF 0.075 8.999999999999999667e-02 units box
fix             addforceO${i} groupO addforce 0.0 0.0 ${forceO} region reg_ez${i}
fix             addforceO6 groupO addforce 0.0 0.0 ${forceO} region reg_ez${i}
fix             addforceO6 groupO addforce 0.0 0.0 -4.459871934826333018e+01 region reg_ez${i}
fix             addforceO6 groupO addforce 0.0 0.0 -4.459871934826333018e+01 region reg_ez6
fix             addforceX${i} groupX addforce 0.0 0.0 ${forceX} region reg_ez${i}
fix             addforceX6 groupX addforce 0.0 0.0 ${forceX} region reg_ez${i}
fix             addforceX6 groupX addforce 0.0 0.0 1.228376155763653514e+02 region reg_ez${i}
fix             addforceX6 groupX addforce 0.0 0.0 1.228376155763653514e+02 region reg_ez6
fix             addforceC${i} groupC addforce 0.0 0.0 ${forceC} region reg_ez${i}
fix             addforceC6 groupC addforce 0.0 0.0 ${forceC} region reg_ez${i}
fix             addforceC6 groupC addforce 0.0 0.0 8.919743869652666035e+01 region reg_ez${i}
fix             addforceC6 groupC addforce 0.0 0.0 8.919743869652666035e+01 region reg_ez6
fix             addforceN${i} groupN addforce 0.0 0.0 ${forceN} region reg_ez${i}
fix             addforceN6 groupN addforce 0.0 0.0 ${forceN} region reg_ez${i}
fix             addforceN6 groupN addforce 0.0 0.0 -6.141880778818267572e+01 region reg_ez${i}
fix             addforceN6 groupN addforce 0.0 0.0 -6.141880778818267572e+01 region reg_ez6
next            forceO
next            forceX
next            forceC
next            forceN
next            i
jump            SELF start_of_loop_1
variable        binlo equal ${z_iter}
variable        binlo equal 8.999999999999999667e-02
next            z_iter
region          reg_ez${i} block INF INF INF INF ${binlo} ${z_iter} units box
region          reg_ez7 block INF INF INF INF ${binlo} ${z_iter} units box
region          reg_ez7 block INF INF INF INF 0.09 ${z_iter} units box
region          reg_ez7 block INF INF INF INF 0.09 1.049999999999999822e-01 units box
fix             addforceO${i} groupO addforce 0.0 0.0 ${forceO} region reg_ez${i}
fix             addforceO7 groupO addforce 0.0 0.0 ${forceO} region reg_ez${i}
fix             addforceO7 groupO addforce 0.0 0.0 -4.450215317604852316e+01 region reg_ez${i}
fix             addforceO7 groupO addforce 0.0 0.0 -4.450215317604852316e+01 region reg_ez7
fix             addforceX${i} groupX addforce 0.0 0.0 ${forceX} region reg_ez${i}
fix             addforceX7 groupX addforce 0.0 0.0 ${forceX} region reg_ez${i}
fix             addforceX7 groupX addforce 0.0 0.0 1.225716447477461770e+02 region reg_ez${i}
fix             addforceX7 groupX addforce 0.0 0.0 1.225716447477461770e+02 region reg_ez7
fix             addforceC${i} groupC addforce 0.0 0.0 ${forceC} region reg_ez${i}
fix             addforceC7 groupC addforce 0.0 0.0 ${forceC} region reg_ez${i}
fix             addforceC7 groupC addforce 0.0 0.0 8.900430635209704633e+01 region reg_ez${i}
fix             addforceC7 groupC addforce 0.0 0.0 8.900430635209704633e+01 region reg_ez7
fix             addforceN${i} groupN addforce 0.0 0.0 ${forceN} region reg_ez${i}
fix             addforceN7 groupN addforce 0.0 0.0 ${forceN} region reg_ez${i}
fix             addforceN7 groupN addforce 0.0 0.0 -6.128582237387308851e+01 region reg_ez${i}
fix             addforceN7 groupN addforce 0.0 0.0 -6.128582237387308851e+01 region reg_ez7
next            forceO
next            forceX
next            forceC
next            forceN
next            i
jump            SELF start_of_loop_1
variable        binlo equal ${z_iter}
variable        binlo equal 1.049999999999999822e-01
next            z_iter
region          reg_ez${i} block INF INF INF INF ${binlo} ${z_iter} units box
region          reg_ez8 block INF INF INF INF ${binlo} ${z_iter} units box
region          reg_ez8 block INF INF INF INF 0.105 ${z_iter} units box
region          reg_ez8 block INF INF INF INF 0.105 1.199999999999999956e-01 units box
fix             addforceO${i} groupO addforce 0.0 0.0 ${forceO} region reg_ez${i}
fix             addforceO8 groupO addforce 0.0 0.0 ${forceO} region reg_ez${i}
fix             addforceO8 groupO addforce 0.0 0.0 -4.440578366882255068e+01 region reg_ez${i}
fix             addforceO8 groupO addforce 0.0 0.0 -4.440578366882255068e+01 region reg_ez8
fix             addforceX${i} groupX addforce 0.0 0.0 ${forceX} region reg_ez${i}
fix             addforceX8 groupX addforce 0.0 0.0 ${forceX} region reg_ez${i}
fix             addforceX8 groupX addforce 0.0 0.0 1.223062155906809494e+02 region reg_ez${i}
fix             addforceX8 groupX addforce 0.0 0.0 1.223062155906809494e+02 region reg_ez8
fix             addforceC${i} groupC addforce 0.0 0.0 ${forceC} region reg_ez${i}
fix             addforceC8 groupC addforce 0.0 0.0 ${forceC} region reg_ez${i}
fix             addforceC8 groupC addforce 0.0 0.0 8.881156733764510136e+01 region reg_ez${i}
fix             addforceC8 groupC addforce 0.0 0.0 8.881156733764510136e+01 region reg_ez8
fix             addforceN${i} groupN addforce 0.0 0.0 ${forceN} region reg_ez${i}
fix             addforceN8 groupN addforce 0.0 0.0 ${forceN} region reg_ez${i}
fix             addforceN8 groupN addforce 0.0 0.0 -6.115310779534047469e+01 region reg_ez${i}
fix             addforceN8 groupN addforce 0.0 0.0 -6.115310779534047469e+01 region reg_ez8
next            forceO
next            forceX
next            forceC
next            forceN
next            i
jump            SELF start_of_loop_1
variable        binlo equal ${z_iter}
variable        binlo equal 1.199999999999999956e-01
next            z_iter
region          reg_ez${i} block INF INF INF INF ${binlo} ${z_iter} units box
region          reg_ez9 block INF INF INF INF ${binlo} ${z_iter} units box
region          reg_ez9 block INF INF INF INF 0.12 ${z_iter} units box
region          reg_ez9 block INF INF INF INF 0.12 1.350000000000000089e-01 units box
fix             addforceO${i} groupO addforce 0.0 0.0 ${forceO} region reg_ez${i}
fix             addforceO9 groupO addforce 0.0 0.0 ${forceO} region reg_ez${i}
fix             addforceO9 groupO addforce 0.0 0.0 -4.430961040069996670e+01 region reg_ez${i}
fix             addforceO9 groupO addforce 0.0 0.0 -4.430961040069996670e+01 region reg_ez9
fix             addforceX${i} groupX addforce 0.0 0.0 ${forceX} region reg_ez${i}
fix             addforceX9 groupX addforce 0.0 0.0 ${forceX} region reg_ez${i}
fix             addforceX9 groupX addforce 0.0 0.0 1.220413269322198175e+02 region reg_ez${i}
fix             addforceX9 groupX addforce 0.0 0.0 1.220413269322198175e+02 region reg_ez9
fix             addforceC${i} groupC addforce 0.0 0.0 ${forceC} region reg_ez${i}
fix             addforceC9 groupC addforce 0.0 0.0 ${forceC} region reg_ez${i}
fix             addforceC9 groupC addforce 0.0 0.0 8.861922080139993341e+01 region reg_ez${i}
fix             addforceC9 groupC addforce 0.0 0.0 8.861922080139993341e+01 region reg_ez9
fix             addforceN${i} groupN addforce 0.0 0.0 ${forceN} region reg_ez${i}
fix             addforceN9 groupN addforce 0.0 0.0 ${forceN} region reg_ez${i}
fix             addforceN9 groupN addforce 0.0 0.0 -6.102066346610990877e+01 region reg_ez${i}
fix             addforceN9 groupN addforce 0.0 0.0 -6.102066346610990877e+01 region reg_ez9
next            forceO
next            forceX
next            forceC
next            forceN
next            i
jump            SELF start_of_loop_1
variable        binlo equal ${z_iter}
variable        binlo equal 1.350000000000000089e-01
next            z_iter
region          reg_ez${i} block INF INF INF INF ${binlo} ${z_iter} units box
region          reg_ez10 block INF INF INF INF ${binlo} ${z_iter} units box
region          reg_ez10 block INF INF INF INF 0.135 ${z_iter} units box
region          reg_ez10 block INF INF INF INF 0.135 1.499999999999999667e-01 units box
fix             addforceO${i} groupO addforce 0.0 0.0 ${forceO} region reg_ez${i}
fix             addforceO10 groupO addforce 0.0 0.0 ${forceO} region reg_ez${i}
fix             addforceO10 groupO addforce 0.0 0.0 -4.421363294668481103e+01 region reg_ez${i}
fix             addforceO10 groupO addforce 0.0 0.0 -4.421363294668481103e+01 region reg_ez10
fix             addforceX${i} groupX addforce 0.0 0.0 ${forceX} region reg_ez${i}
fix             addforceX10 groupX addforce 0.0 0.0 ${forceX} region reg_ez${i}
fix             addforceX10 groupX addforce 0.0 0.0 1.217769776017339609e+02 region reg_ez${i}
fix             addforceX10 groupX addforce 0.0 0.0 1.217769776017339609e+02 region reg_ez10
fix             addforceC${i} groupC addforce 0.0 0.0 ${forceC} region reg_ez${i}
fix             addforceC10 groupC addforce 0.0 0.0 ${forceC} region reg_ez${i}
fix             addforceC10 groupC addforce 0.0 0.0 8.842726589336962206e+01 region reg_ez${i}
fix             addforceC10 groupC addforce 0.0 0.0 8.842726589336962206e+01 region reg_ez10
fix             addforceN${i} groupN addforce 0.0 0.0 ${forceN} region reg_ez${i}
fix             addforceN10 groupN addforce 0.0 0.0 ${forceN} region reg_ez${i}
fix             addforceN10 groupN addforce 0.0 0.0 -6.088848880086698045e+01 region reg_ez${i}
fix             addforceN10 groupN addforce 0.0 0.0 -6.088848880086698045e+01 region reg_ez10
next            forceO
next            forceX
next            forceC
next            forceN
next            i
jump            SELF start_of_loop_1
variable        binlo equal ${z_iter}
variable        binlo equal 1.499999999999999667e-01
next            z_iter
region          reg_ez${i} block INF INF INF INF ${binlo} ${z_iter} units box
region          reg_ez11 block INF INF INF INF ${binlo} ${z_iter} units box
region          reg_ez11 block INF INF INF INF 0.15 ${z_iter} units box
region          reg_ez11 block INF INF INF INF 0.15 1.649999999999999800e-01 units box
fix             addforceO${i} groupO addforce 0.0 0.0 ${forceO} region reg_ez${i}
fix             addforceO11 groupO addforce 0.0 0.0 ${forceO} region reg_ez${i}
fix             addforceO11 groupO addforce 0.0 0.0 -4.411785088262331556e+01 region reg_ez${i}
fix             addforceO11 groupO addforce 0.0 0.0 -4.411785088262331556e+01 region reg_ez11
fix             addforceX${i} groupX addforce 0.0 0.0 ${forceX} region reg_ez${i}
fix             addforceX11 groupX addforce 0.0 0.0 ${forceX} region reg_ez${i}
fix             addforceX11 groupX addforce 0.0 0.0 1.215131664309847110e+02 region reg_ez${i}
fix             addforceX11 groupX addforce 0.0 0.0 1.215131664309847110e+02 region reg_ez11
fix             addforceC${i} groupC addforce 0.0 0.0 ${forceC} region reg_ez${i}
fix             addforceC11 groupC addforce 0.0 0.0 ${forceC} region reg_ez${i}
fix             addforceC11 groupC addforce 0.0 0.0 8.823570176524663111e+01 region reg_ez${i}
fix             addforceC11 groupC addforce 0.0 0.0 8.823570176524663111e+01 region reg_ez11
fix             addforceN${i} groupN addforce 0.0 0.0 ${forceN} region reg_ez${i}
fix             addforceN11 groupN addforce 0.0 0.0 ${forceN} region reg_ez${i}
fix             addforceN11 groupN addforce 0.0 0.0 -6.075658321549235552e+01 region reg_ez${i}
fix             addforceN11 groupN addforce 0.0 0.0 -6.075658321549235552e+01 region reg_ez11
next            forceO
next            forceX
next            forceC
next            forceN
next            i
jump            SELF start_of_loop_1
variable        binlo equal ${z_iter}
variable        binlo equal 1.649999999999999800e-01
next            z_iter
region          reg_ez${i} block INF INF INF INF ${binlo} ${z_iter} units box
region          reg_ez12 block INF INF INF INF ${binlo} ${z_iter} units box
region          reg_ez12 block INF INF INF INF 0.165 ${z_iter} units box
region          reg_ez12 block INF INF INF INF 0.165 1.799999999999999933e-01 units box
fix             addforceO${i} groupO addforce 0.0 0.0 ${forceO} region reg_ez${i}
fix             addforceO12 groupO addforce 0.0 0.0 ${forceO} region reg_ez${i}
fix             addforceO12 groupO addforce 0.0 0.0 -4.402226378523482708e+01 region reg_ez${i}
fix             addforceO12 groupO addforce 0.0 0.0 -4.402226378523482708e+01 region reg_ez12
fix             addforceX${i} groupX addforce 0.0 0.0 ${forceX} region reg_ez${i}
fix             addforceX12 groupX addforce 0.0 0.0 ${forceX} region reg_ez${i}
fix             addforceX12 groupX addforce 0.0 0.0 1.212498922541853972e+02 region reg_ez${i}
fix             addforceX12 groupX addforce 0.0 0.0 1.212498922541853972e+02 region reg_ez12
fix             addforceC${i} groupC addforce 0.0 0.0 ${forceC} region reg_ez${i}
fix             addforceC12 groupC addforce 0.0 0.0 ${forceC} region reg_ez${i}
fix             addforceC12 groupC addforce 0.0 0.0 8.804452757046965417e+01 region reg_ez${i}
fix             addforceC12 groupC addforce 0.0 0.0 8.804452757046965417e+01 region reg_ez12
fix             addforceN${i} groupN addforce 0.0 0.0 ${forceN} region reg_ez${i}
fix             addforceN12 groupN addforce 0.0 0.0 ${forceN} region reg_ez${i}
fix             addforceN12 groupN addforce 0.0 0.0 -6.062494612709269859e+01 region reg_ez${i}
fix             addforceN12 groupN addforce 0.0 0.0 -6.062494612709269859e+01 region reg_ez12
next            forceO
next            forceX
next            forceC
next            forceN
next            i
jump            SELF start_of_loop_1
variable        binlo equal ${z_iter}
variable        binlo equal 1.799999999999999933e-01
next            z_iter
region          reg_ez${i} block INF INF INF INF ${binlo} ${z_iter} units box
region          reg_ez13 block INF INF INF INF ${binlo} ${z_iter} units box
region          reg_ez13 block INF INF INF INF 0.18 ${z_iter} units box
region          reg_ez13 block INF INF INF INF 0.18 1.950000000000000067e-01 units box
fix             addforceO${i} groupO addforce 0.0 0.0 ${forceO} region reg_ez${i}
fix             addforceO13 groupO addforce 0.0 0.0 ${forceO} region reg_ez${i}
fix             addforceO13 groupO addforce 0.0 0.0 -4.392687123209179845e+01 region reg_ez${i}
fix             addforceO13 groupO addforce 0.0 0.0 -4.392687123209179845e+01 region reg_ez13
fix             addforceX${i} groupX addforce 0.0 0.0 ${forceX} region reg_ez${i}
fix             addforceX13 groupX addforce 0.0 0.0 ${forceX} region reg_ez${i}
fix             addforceX13 groupX addforce 0.0 0.0 1.209871539078267233e+02 region reg_ez${i}
fix             addforceX13 groupX addforce 0.0 0.0 1.209871539078267233e+02 region reg_ez13
fix             addforceC${i} groupC addforce 0.0 0.0 ${forceC} region reg_ez${i}
fix             addforceC13 groupC addforce 0.0 0.0 ${forceC} region reg_ez${i}
fix             addforceC13 groupC addforce 0.0 0.0 8.785374246418359689e+01 region reg_ez${i}
fix             addforceC13 groupC addforce 0.0 0.0 8.785374246418359689e+01 region reg_ez13
fix             addforceN${i} groupN addforce 0.0 0.0 ${forceN} region reg_ez${i}
fix             addforceN13 groupN addforce 0.0 0.0 ${forceN} region reg_ez${i}
fix             addforceN13 groupN addforce 0.0 0.0 -6.049357695391336165e+01 region reg_ez${i}
fix             addforceN13 groupN addforce 0.0 0.0 -6.049357695391336165e+01 region reg_ez13
next            forceO
next            forceX
next            forceC
next            forceN
next            i
jump            SELF start_of_loop_1
variable        binlo equal ${z_iter}
variable        binlo equal 1.950000000000000067e-01
next            z_iter
region          reg_ez${i} block INF INF INF INF ${binlo} ${z_iter} units box
region          reg_ez14 block INF INF INF INF ${binlo} ${z_iter} units box
region          reg_ez14 block INF INF INF INF 0.195 ${z_iter} units box
region          reg_ez14 block INF INF INF INF 0.195 2.099999999999999645e-01 units box
fix             addforceO${i} groupO addforce 0.0 0.0 ${forceO} region reg_ez${i}
fix             addforceO14 groupO addforce 0.0 0.0 ${forceO} region reg_ez${i}
fix             addforceO14 groupO addforce 0.0 0.0 -4.383167280164525437e+01 region reg_ez${i}
fix             addforceO14 groupO addforce 0.0 0.0 -4.383167280164525437e+01 region reg_ez14
fix             addforceX${i} groupX addforce 0.0 0.0 ${forceX} region reg_ez${i}
fix             addforceX14 groupX addforce 0.0 0.0 ${forceX} region reg_ez${i}
fix             addforceX14 groupX addforce 0.0 0.0 1.207249502308222873e+02 region reg_ez${i}
fix             addforceX14 groupX addforce 0.0 0.0 1.207249502308222873e+02 region reg_ez14
fix             addforceC${i} groupC addforce 0.0 0.0 ${forceC} region reg_ez${i}
fix             addforceC14 groupC addforce 0.0 0.0 ${forceC} region reg_ez${i}
fix             addforceC14 groupC addforce 0.0 0.0 8.766334560329050873e+01 region reg_ez${i}
fix             addforceC14 groupC addforce 0.0 0.0 8.766334560329050873e+01 region reg_ez14
fix             addforceN${i} groupN addforce 0.0 0.0 ${forceN} region reg_ez${i}
fix             addforceN14 groupN addforce 0.0 0.0 ${forceN} region reg_ez${i}
fix             addforceN14 groupN addforce 0.0 0.0 -6.036247511541114363e+01 region reg_ez${i}
fix             addforceN14 groupN addforce 0.0 0.0 -6.036247511541114363e+01 region reg_ez14
next            forceO
next            forceX
next            forceC
next            forceN
next            i
jump            SELF start_of_loop_1
variable        binlo equal ${z_iter}
variable        binlo equal 2.099999999999999645e-01
next            z_iter
region          reg_ez${i} block INF INF INF INF ${binlo} ${z_iter} units box
region          reg_ez15 block INF INF INF INF ${binlo} ${z_iter} units box
region          reg_ez15 block INF INF INF INF 0.21 ${z_iter} units box
region          reg_ez15 block INF INF INF INF 0.21 2.249999999999999778e-01 units box
fix             addforceO${i} groupO addforce 0.0 0.0 ${forceO} region reg_ez${i}
fix             addforceO15 groupO addforce 0.0 0.0 ${forceO} region reg_ez${i}
fix             addforceO15 groupO addforce 0.0 0.0 -4.373666807317931671e+01 region reg_ez${i}
fix             addforceO15 groupO addforce 0.0 0.0 -4.373666807317931671e+01 region reg_ez15
fix             addforceX${i} groupX addforce 0.0 0.0 ${forceX} region reg_ez${i}
fix             addforceX15 groupX addforce 0.0 0.0 ${forceX} region reg_ez${i}
fix             addforceX15 groupX addforce 0.0 0.0 1.204632800644139934e+02 region reg_ez${i}
fix             addforceX15 groupX addforce 0.0 0.0 1.204632800644139934e+02 region reg_ez15
fix             addforceC${i} groupC addforce 0.0 0.0 ${forceC} region reg_ez${i}
fix             addforceC15 groupC addforce 0.0 0.0 ${forceC} region reg_ez${i}
fix             addforceC15 groupC addforce 0.0 0.0 8.747333614635863341e+01 region reg_ez${i}
fix             addforceC15 groupC addforce 0.0 0.0 8.747333614635863341e+01 region reg_ez15
fix             addforceN${i} groupN addforce 0.0 0.0 ${forceN} region reg_ez${i}
fix             addforceN15 groupN addforce 0.0 0.0 ${forceN} region reg_ez${i}
fix             addforceN15 groupN addforce 0.0 0.0 -6.023164003220699669e+01 region reg_ez${i}
fix             addforceN15 groupN addforce 0.0 0.0 -6.023164003220699669e+01 region reg_ez15
next            forceO
next            forceX
next            forceC
next            forceN
next            i
jump            SELF start_of_loop_1
variable        binlo equal ${z_iter}
variable        binlo equal 2.249999999999999778e-01
next            z_iter
region          reg_ez${i} block INF INF INF INF ${binlo} ${z_iter} units box
region          reg_ez16 block INF INF INF INF ${binlo} ${z_iter} units box
region          reg_ez16 block INF INF INF INF 0.225 ${z_iter} units box
region          reg_ez16 block INF INF INF INF 0.225 2.399999999999999911e-01 units box
fix             addforceO${i} groupO addforce 0.0 0.0 ${forceO} region reg_ez${i}
fix             addforceO16 groupO addforce 0.0 0.0 ${forceO} region reg_ez${i}
fix             addforceO16 groupO addforce 0.0 0.0 -4.364185662685486022e+01 region reg_ez${i}
fix             addforceO16 groupO addforce 0.0 0.0 -4.364185662685486022e+01 region reg_ez16
fix             addforceX${i} groupX addforce 0.0 0.0 ${forceX} region reg_ez${i}
fix             addforceX16 groupX addforce 0.0 0.0 ${forceX} region reg_ez${i}
fix             addforceX16 groupX addforce 0.0 0.0 1.202021422522520879e+02 region reg_ez${i}
fix             addforceX16 groupX addforce 0.0 0.0 1.202021422522520879e+02 region reg_ez16
fix             addforceC${i} groupC addforce 0.0 0.0 ${forceC} region reg_ez${i}
fix             addforceC16 groupC addforce 0.0 0.0 ${forceC} region reg_ez${i}
fix             addforceC16 groupC addforce 0.0 0.0 8.728371325370972045e+01 region reg_ez${i}
fix             addforceC16 groupC addforce 0.0 0.0 8.728371325370972045e+01 region reg_ez16
fix             addforceN${i} groupN addforce 0.0 0.0 ${forceN} region reg_ez${i}
fix             addforceN16 groupN addforce 0.0 0.0 ${forceN} region reg_ez${i}
fix             addforceN16 groupN addforce 0.0 0.0 -6.010107112612604396e+01 region reg_ez${i}
fix             addforceN16 groupN addforce 0.0 0.0 -6.010107112612604396e+01 region reg_ez16
next            forceO
next            forceX
next            forceC
next            forceN
next            i
jump            SELF start_of_loop_1
variable        binlo equal ${z_iter}
variable        binlo equal 2.399999999999999911e-01
next            z_iter
region          reg_ez${i} block INF INF INF INF ${binlo} ${z_iter} units box
region          reg_ez17 block INF INF INF INF ${binlo} ${z_iter} units box
region          reg_ez17 block INF INF INF INF 0.24 ${z_iter} units box
region          reg_ez17 block INF INF INF INF 0.24 2.550000000000000044e-01 units box
fix             addforceO${i} groupO addforce 0.0 0.0 ${forceO} region reg_ez${i}
fix             addforceO17 groupO addforce 0.0 0.0 ${forceO} region reg_ez${i}
fix             addforceO17 groupO addforce 0.0 0.0 -4.354723804367858975e+01 region reg_ez${i}
fix             addforceO17 groupO addforce 0.0 0.0 -4.354723804367858975e+01 region reg_ez17
fix             addforceX${i} groupX addforce 0.0 0.0 ${forceX} region reg_ez${i}
fix             addforceX17 groupX addforce 0.0 0.0 ${forceX} region reg_ez${i}
fix             addforceX17 groupX addforce 0.0 0.0 1.199415356403042097e+02 region reg_ez${i}
fix             addforceX17 groupX addforce 0.0 0.0 1.199415356403042097e+02 region reg_ez17
fix             addforceC${i} groupC addforce 0.0 0.0 ${forceC} region reg_ez${i}
fix             addforceC17 groupC addforce 0.0 0.0 ${forceC} region reg_ez${i}
fix             addforceC17 groupC addforce 0.0 0.0 8.709447608735717949e+01 region reg_ez${i}
fix             addforceC17 groupC addforce 0.0 0.0 8.709447608735717949e+01 region reg_ez17
fix             addforceN${i} groupN addforce 0.0 0.0 ${forceN} region reg_ez${i}
fix             addforceN17 groupN addforce 0.0 0.0 ${forceN} region reg_ez${i}
fix             addforceN17 groupN addforce 0.0 0.0 -5.997076782015210483e+01 region reg_ez${i}
fix             addforceN17 groupN addforce 0.0 0.0 -5.997076782015210483e+01 region reg_ez17
next            forceO
next            forceX
next            forceC
next            forceN
next            i
jump            SELF start_of_loop_1
variable        binlo equal ${z_iter}
variable        binlo equal 2.550000000000000044e-01
next            z_iter
region          reg_ez${i} block INF INF INF INF ${binlo} ${z_iter} units box
region          reg_ez18 block INF INF INF INF ${binlo} ${z_iter} units box
region          reg_ez18 block INF INF INF INF 0.255 ${z_iter} units box
region          reg_ez18 block INF INF INF INF 0.255 2.699999999999999623e-01 units box
fix             addforceO${i} groupO addforce 0.0 0.0 ${forceO} region reg_ez${i}
fix             addforceO18 groupO addforce 0.0 0.0 ${forceO} region reg_ez${i}
fix             addforceO18 groupO addforce 0.0 0.0 -4.345281190551577311e+01 region reg_ez${i}
fix             addforceO18 groupO addforce 0.0 0.0 -4.345281190551577311e+01 region reg_ez18
fix             addforceX${i} groupX addforce 0.0 0.0 ${forceX} region reg_ez${i}
fix             addforceX18 groupX addforce 0.0 0.0 ${forceX} region reg_ez${i}
fix             addforceX18 groupX addforce 0.0 0.0 1.196814590768990456e+02 region reg_ez${i}
fix             addforceX18 groupX addforce 0.0 0.0 1.196814590768990456e+02 region reg_ez18
fix             addforceC${i} groupC addforce 0.0 0.0 ${forceC} region reg_ez${i}
fix             addforceC18 groupC addforce 0.0 0.0 ${forceC} region reg_ez${i}
fix             addforceC18 groupC addforce 0.0 0.0 8.690562381103154621e+01 region reg_ez${i}
fix             addforceC18 groupC addforce 0.0 0.0 8.690562381103154621e+01 region reg_ez18
fix             addforceN${i} groupN addforce 0.0 0.0 ${forceN} region reg_ez${i}
fix             addforceN18 groupN addforce 0.0 0.0 ${forceN} region reg_ez${i}
fix             addforceN18 groupN addforce 0.0 0.0 -5.984072953844952281e+01 region reg_ez${i}
fix             addforceN18 groupN addforce 0.0 0.0 -5.984072953844952281e+01 region reg_ez18
next            forceO
next            forceX
next            forceC
next            forceN
next            i
jump            SELF start_of_loop_1
variable        binlo equal ${z_iter}
variable        binlo equal 2.699999999999999623e-01
next            z_iter
region          reg_ez${i} block INF INF INF INF ${binlo} ${z_iter} units box
region          reg_ez19 block INF INF INF INF ${binlo} ${z_iter} units box
region          reg_ez19 block INF INF INF INF 0.27 ${z_iter} units box
region          reg_ez19 block INF INF INF INF 0.27 2.849999999999999756e-01 units box
fix             addforceO${i} groupO addforce 0.0 0.0 ${forceO} region reg_ez${i}
fix             addforceO19 groupO addforce 0.0 0.0 ${forceO} region reg_ez${i}
fix             addforceO19 groupO addforce 0.0 0.0 -4.335857779505749932e+01 region reg_ez${i}
fix             addforceO19 groupO addforce 0.0 0.0 -4.335857779505749932e+01 region reg_ez19
fix             addforceX${i} groupX addforce 0.0 0.0 ${forceX} region reg_ez${i}
fix             addforceX19 groupX addforce 0.0 0.0 ${forceX} region reg_ez${i}
fix             addforceX19 groupX addforce 0.0 0.0 1.194219114126753993e+02 region reg_ez${i}
fix             addforceX19 groupX addforce 0.0 0.0 1.194219114126753993e+02 region reg_ez19
fix             addforceC${i} groupC addforce 0.0 0.0 ${forceC} region reg_ez${i}
fix             addforceC19 groupC addforce 0.0 0.0 ${forceC} region reg_ez${i}
fix             addforceC19 groupC addforce 0.0 0.0 8.671715559011499863e+01 region reg_ez${i}
fix             addforceC19 groupC addforce 0.0 0.0 8.671715559011499863e+01 region reg_ez19
fix             addforceN${i} groupN addforce 0.0 0.0 ${forceN} region reg_ez${i}
fix             addforceN19 groupN addforce 0.0 0.0 ${forceN} region reg_ez${i}
fix             addforceN19 groupN addforce 0.0 0.0 -5.971095570633769967e+01 region reg_ez${i}
fix             addforceN19 groupN addforce 0.0 0.0 -5.971095570633769967e+01 region reg_ez19
next            forceO
next            forceX
next            forceC
next            forceN
next            i
jump            SELF start_of_loop_1
variable        binlo equal ${z_iter}
variable        binlo equal 2.849999999999999756e-01
next            z_iter
region          reg_ez${i} block INF INF INF INF ${binlo} ${z_iter} units box
region          reg_ez20 block INF INF INF INF ${binlo} ${z_iter} units box
region          reg_ez20 block INF INF INF INF 0.285 ${z_iter} units box
region          reg_ez20 block INF INF INF INF 0.285 2.999999999999999889e-01 units box
fix             addforceO${i} groupO addforce 0.0 0.0 ${forceO} region reg_ez${i}
fix             addforceO20 groupO addforce 0.0 0.0 ${forceO} region reg_ez${i}
fix             addforceO20 groupO addforce 0.0 0.0 -4.326453529587706726e+01 region reg_ez${i}
fix             addforceO20 groupO addforce 0.0 0.0 -4.326453529587706726e+01 region reg_ez20
fix             addforceX${i} groupX addforce 0.0 0.0 ${forceX} region reg_ez${i}
fix             addforceX20 groupX addforce 0.0 0.0 ${forceX} region reg_ez${i}
fix             addforceX20 groupX addforce 0.0 0.0 1.191628915006440366e+02 region reg_ez${i}
fix             addforceX20 groupX addforce 0.0 0.0 1.191628915006440366e+02 region reg_ez20
fix             addforceC${i} groupC addforce 0.0 0.0 ${forceC} region reg_ez${i}
fix             addforceC20 groupC addforce 0.0 0.0 ${forceC} region reg_ez${i}
fix             addforceC20 groupC addforce 0.0 0.0 8.652907059175413451e+01 region reg_ez${i}
fix             addforceC20 groupC addforce 0.0 0.0 8.652907059175413451e+01 region reg_ez20
fix             addforceN${i} groupN addforce 0.0 0.0 ${forceN} region reg_ez${i}
fix             addforceN20 groupN addforce 0.0 0.0 ${forceN} region reg_ez${i}
fix             addforceN20 groupN addforce 0.0 0.0 -5.958144575032201828e+01 region reg_ez${i}
fix             addforceN20 groupN addforce 0.0 0.0 -5.958144575032201828e+01 region reg_ez20
next            forceO
next            forceX
next            forceC
next            forceN
next            i
jump            SELF start_of_loop_1
variable        binlo equal ${z_iter}
variable        binlo equal 2.999999999999999889e-01
next            z_iter
region          reg_ez${i} block INF INF INF INF ${binlo} ${z_iter} units box
region          reg_ez21 block INF INF INF INF ${binlo} ${z_iter} units box
region          reg_ez21 block INF INF INF INF 0.3 ${z_iter} units box
region          reg_ez21 block INF INF INF INF 0.3 3.150000000000000022e-01 units box
fix             addforceO${i} groupO addforce 0.0 0.0 ${forceO} region reg_ez${i}
fix             addforceO21 groupO addforce 0.0 0.0 ${forceO} region reg_ez${i}
fix             addforceO21 groupO addforce 0.0 0.0 -4.317068399237541598e+01 region reg_ez${i}
fix             addforceO21 groupO addforce 0.0 0.0 -4.317068399237541598e+01 region reg_ez21
fix             addforceX${i} groupX addforce 0.0 0.0 ${forceX} region reg_ez${i}
fix             addforceX21 groupX addforce 0.0 0.0 ${forceX} region reg_ez${i}
fix             addforceX21 groupX addforce 0.0 0.0 1.189043981961367535e+02 region reg_ez${i}
fix             addforceX21 groupX addforce 0.0 0.0 1.189043981961367535e+02 region reg_ez21
fix             addforceC${i} groupC addforce 0.0 0.0 ${forceC} region reg_ez${i}
fix             addforceC21 groupC addforce 0.0 0.0 ${forceC} region reg_ez${i}
fix             addforceC21 groupC addforce 0.0 0.0 8.634136798475083197e+01 region reg_ez${i}
fix             addforceC21 groupC addforce 0.0 0.0 8.634136798475083197e+01 region reg_ez21
fix             addforceN${i} groupN addforce 0.0 0.0 ${forceN} region reg_ez${i}
fix             addforceN21 groupN addforce 0.0 0.0 ${forceN} region reg_ez${i}
fix             addforceN21 groupN addforce 0.0 0.0 -5.945219909806837677e+01 region reg_ez${i}
fix             addforceN21 groupN addforce 0.0 0.0 -5.945219909806837677e+01 region reg_ez21
next            forceO
next            forceX
next            forceC
next            forceN
next            i
jump            SELF start_of_loop_1
variable        binlo equal ${z_iter}
variable        binlo equal 3.150000000000000022e-01
next            z_iter
region          reg_ez${i} block INF INF INF INF ${binlo} ${z_iter} units box
region          reg_ez22 block INF INF INF INF ${binlo} ${z_iter} units box
region          reg_ez22 block INF INF INF INF 0.315 ${z_iter} units box
region          reg_ez22 block INF INF INF INF 0.315 3.299999999999999600e-01 units box
fix             addforceO${i} groupO addforce 0.0 0.0 ${forceO} region reg_ez${i}
fix             addforceO22 groupO addforce 0.0 0.0 ${forceO} region reg_ez${i}
fix             addforceO22 groupO addforce 0.0 0.0 -4.307702346980477159e+01 region reg_ez${i}
fix             addforceO22 groupO addforce 0.0 0.0 -4.307702346980477159e+01 region reg_ez22
fix             addforceX${i} groupX addforce 0.0 0.0 ${forceX} region reg_ez${i}
fix             addforceX22 groupX addforce 0.0 0.0 ${forceX} region reg_ez${i}
fix             addforceX22 groupX addforce 0.0 0.0 1.186464303568354808e+02 region reg_ez${i}
fix             addforceX22 groupX addforce 0.0 0.0 1.186464303568354808e+02 region reg_ez22
fix             addforceC${i} groupC addforce 0.0 0.0 ${forceC} region reg_ez${i}
fix             addforceC22 groupC addforce 0.0 0.0 ${forceC} region reg_ez${i}
fix             addforceC22 groupC addforce 0.0 0.0 8.615404693960954319e+01 region reg_ez${i}
fix             addforceC22 groupC addforce 0.0 0.0 8.615404693960954319e+01 region reg_ez22
fix             addforceN${i} groupN addforce 0.0 0.0 ${forceN} region reg_ez${i}
fix             addforceN22 groupN addforce 0.0 0.0 ${forceN} region reg_ez${i}
fix             addforceN22 groupN addforce 0.0 0.0 -5.932321517841774039e+01 region reg_ez${i}
fix             addforceN22 groupN addforce 0.0 0.0 -5.932321517841774039e+01 region reg_ez22
next            forceO
next            forceX
next            forceC
next            forceN
next            i
jump            SELF start_of_loop_1
variable        binlo equal ${z_iter}
variable        binlo equal 3.299999999999999600e-01
next            z_iter
region          reg_ez${i} block INF INF INF INF ${binlo} ${z_iter} units box
region          reg_ez23 block INF INF INF INF ${binlo} ${z_iter} units box
region          reg_ez23 block INF INF INF INF 0.33 ${z_iter} units box
region          reg_ez23 block INF INF INF INF 0.33 3.449999999999999734e-01 units box
fix             addforceO${i} groupO addforce 0.0 0.0 ${forceO} region reg_ez${i}
fix             addforceO23 groupO addforce 0.0 0.0 ${forceO} region reg_ez${i}
fix             addforceO23 groupO addforce 0.0 0.0 -4.298355331425227632e+01 region reg_ez${i}
fix             addforceO23 groupO addforce 0.0 0.0 -4.298355331425227632e+01 region reg_ez23
fix             addforceX${i} groupX addforce 0.0 0.0 ${forceX} region reg_ez${i}
fix             addforceX23 groupX addforce 0.0 0.0 ${forceX} region reg_ez${i}
fix             addforceX23 groupX addforce 0.0 0.0 1.183889868426922476e+02 region reg_ez${i}
fix             addforceX23 groupX addforce 0.0 0.0 1.183889868426922476e+02 region reg_ez23
fix             addforceC${i} groupC addforce 0.0 0.0 ${forceC} region reg_ez${i}
fix             addforceC23 groupC addforce 0.0 0.0 ${forceC} region reg_ez${i}
fix             addforceC23 groupC addforce 0.0 0.0 8.596710662850455265e+01 region reg_ez${i}
fix             addforceC23 groupC addforce 0.0 0.0 8.596710662850455265e+01 region reg_ez23
fix             addforceN${i} groupN addforce 0.0 0.0 ${forceN} region reg_ez${i}
fix             addforceN23 groupN addforce 0.0 0.0 ${forceN} region reg_ez${i}
fix             addforceN23 groupN addforce 0.0 0.0 -5.919449342134612380e+01 region reg_ez${i}
fix             addforceN23 groupN addforce 0.0 0.0 -5.919449342134612380e+01 region reg_ez23
next            forceO
next            forceX
next            forceC
next            forceN
next            i
jump            SELF start_of_loop_1
variable        binlo equal ${z_iter}
variable        binlo equal 3.449999999999999734e-01
next            z_iter
region          reg_ez${i} block INF INF INF INF ${binlo} ${z_iter} units box
region          reg_ez24 block INF INF INF INF ${binlo} ${z_iter} units box
region          reg_ez24 block INF INF INF INF 0.345 ${z_iter} units box
region          reg_ez24 block INF INF INF INF 0.345 3.599999999999999867e-01 units box
fix             addforceO${i} groupO addforce 0.0 0.0 ${forceO} region reg_ez${i}
fix             addforceO24 groupO addforce 0.0 0.0 ${forceO} region reg_ez${i}
fix             addforceO24 groupO addforce 0.0 0.0 -4.289027311265817843e+01 region reg_ez${i}
fix             addforceO24 groupO addforce 0.0 0.0 -4.289027311265817843e+01 region reg_ez24
fix             addforceX${i} groupX addforce 0.0 0.0 ${forceX} region reg_ez${i}
fix             addforceX24 groupX addforce 0.0 0.0 ${forceX} region reg_ez${i}
fix             addforceX24 groupX addforce 0.0 0.0 1.181320665160055796e+02 region reg_ez${i}
fix             addforceX24 groupX addforce 0.0 0.0 1.181320665160055796e+02 region reg_ez24
fix             addforceC${i} groupC addforce 0.0 0.0 ${forceC} region reg_ez${i}
fix             addforceC24 groupC addforce 0.0 0.0 ${forceC} region reg_ez${i}
fix             addforceC24 groupC addforce 0.0 0.0 8.578054622531635687e+01 region reg_ez${i}
fix             addforceC24 groupC addforce 0.0 0.0 8.578054622531635687e+01 region reg_ez24
fix             addforceN${i} groupN addforce 0.0 0.0 ${forceN} region reg_ez${i}
fix             addforceN24 groupN addforce 0.0 0.0 ${forceN} region reg_ez${i}
fix             addforceN24 groupN addforce 0.0 0.0 -5.906603325800278981e+01 region reg_ez${i}
fix             addforceN24 groupN addforce 0.0 0.0 -5.906603325800278981e+01 region reg_ez24
next            forceO
next            forceX
next            forceC
next            forceN
next            i
jump            SELF start_of_loop_1
variable        binlo equal ${z_iter}
variable        binlo equal 3.599999999999999867e-01
next            z_iter
region          reg_ez${i} block INF INF INF INF ${binlo} ${z_iter} units box
region          reg_ez25 block INF INF INF INF ${binlo} ${z_iter} units box
region          reg_ez25 block INF INF INF INF 0.36 ${z_iter} units box
region          reg_ez25 block INF INF INF INF 0.36 3.750000000000000000e-01 units box
fix             addforceO${i} groupO addforce 0.0 0.0 ${forceO} region reg_ez${i}
fix             addforceO25 groupO addforce 0.0 0.0 ${forceO} region reg_ez${i}
fix             addforceO25 groupO addforce 0.0 0.0 -4.279718245279582334e+01 region reg_ez${i}
fix             addforceO25 groupO addforce 0.0 0.0 -4.279718245279582334e+01 region reg_ez25
fix             addforceX${i} groupX addforce 0.0 0.0 ${forceX} region reg_ez${i}
fix             addforceX25 groupX addforce 0.0 0.0 ${forceX} region reg_ez${i}
fix             addforceX25 groupX addforce 0.0 0.0 1.178756682414132229e+02 region reg_ez${i}
fix             addforceX25 groupX addforce 0.0 0.0 1.178756682414132229e+02 region reg_ez25
fix             addforceC${i} groupC addforce 0.0 0.0 ${forceC} region reg_ez${i}
fix             addforceC25 groupC addforce 0.0 0.0 ${forceC} region reg_ez${i}
fix             addforceC25 groupC addforce 0.0 0.0 8.559436490559164668e+01 region reg_ez${i}
fix             addforceC25 groupC addforce 0.0 0.0 8.559436490559164668e+01 region reg_ez25
fix             addforceN${i} groupN addforce 0.0 0.0 ${forceN} region reg_ez${i}
fix             addforceN25 groupN addforce 0.0 0.0 ${forceN} region reg_ez${i}
fix             addforceN25 groupN addforce 0.0 0.0 -5.893783412070661143e+01 region reg_ez${i}
fix             addforceN25 groupN addforce 0.0 0.0 -5.893783412070661143e+01 region reg_ez25
next            forceO
next            forceX
next            forceC
next            forceN
next            i
jump            SELF start_of_loop_1
variable        binlo equal ${z_iter}
variable        binlo equal 3.750000000000000000e-01
next            z_iter
region          reg_ez${i} block INF INF INF INF ${binlo} ${z_iter} units box
region          reg_ez26 block INF INF INF INF ${binlo} ${z_iter} units box
region          reg_ez26 block INF INF INF INF 0.375 ${z_iter} units box
region          reg_ez26 block INF INF INF INF 0.375 3.899999999999999578e-01 units box
fix             addforceO${i} groupO addforce 0.0 0.0 ${forceO} region reg_ez${i}
fix             addforceO26 groupO addforce 0.0 0.0 ${forceO} region reg_ez${i}
fix             addforceO26 groupO addforce 0.0 0.0 -4.270428092328256753e+01 region reg_ez${i}
fix             addforceO26 groupO addforce 0.0 0.0 -4.270428092328256753e+01 region reg_ez26
fix             addforceX${i} groupX addforce 0.0 0.0 ${forceX} region reg_ez${i}
fix             addforceX26 groupX addforce 0.0 0.0 ${forceX} region reg_ez${i}
fix             addforceX26 groupX addforce 0.0 0.0 1.176197908858339360e+02 region reg_ez${i}
fix             addforceX26 groupX addforce 0.0 0.0 1.176197908858339360e+02 region reg_ez26
fix             addforceC${i} groupC addforce 0.0 0.0 ${forceC} region reg_ez${i}
fix             addforceC26 groupC addforce 0.0 0.0 ${forceC} region reg_ez${i}
fix             addforceC26 groupC addforce 0.0 0.0 8.540856184656513506e+01 region reg_ez${i}
fix             addforceC26 groupC addforce 0.0 0.0 8.540856184656513506e+01 region reg_ez26
fix             addforceN${i} groupN addforce 0.0 0.0 ${forceN} region reg_ez${i}
fix             addforceN26 groupN addforce 0.0 0.0 ${forceN} region reg_ez${i}
fix             addforceN26 groupN addforce 0.0 0.0 -5.880989544291696802e+01 region reg_ez${i}
fix             addforceN26 groupN addforce 0.0 0.0 -5.880989544291696802e+01 region reg_ez26
next            forceO
next            forceX
next            forceC
next            forceN
next            i
jump            SELF start_of_loop_1
variable        binlo equal ${z_iter}
variable        binlo equal 3.899999999999999578e-01
next            z_iter
region          reg_ez${i} block INF INF INF INF ${binlo} ${z_iter} units box
region          reg_ez27 block INF INF INF INF ${binlo} ${z_iter} units box
region          reg_ez27 block INF INF INF INF 0.39 ${z_iter} units box
region          reg_ez27 block INF INF INF INF 0.39 4.049999999999999711e-01 units box
fix             addforceO${i} groupO addforce 0.0 0.0 ${forceO} region reg_ez${i}
fix             addforceO27 groupO addforce 0.0 0.0 ${forceO} region reg_ez${i}
fix             addforceO27 groupO addforce 0.0 0.0 -4.261156811354339879e+01 region reg_ez${i}
fix             addforceO27 groupO addforce 0.0 0.0 -4.261156811354339879e+01 region reg_ez27
fix             addforceX${i} groupX addforce 0.0 0.0 ${forceX} region reg_ez${i}
fix             addforceX27 groupX addforce 0.0 0.0 ${forceX} region reg_ez${i}
fix             addforceX27 groupX addforce 0.0 0.0 1.173644333184493007e+02 region reg_ez${i}
fix             addforceX27 groupX addforce 0.0 0.0 1.173644333184493007e+02 region reg_ez27
fix             addforceC${i} groupC addforce 0.0 0.0 ${forceC} region reg_ez${i}
fix             addforceC27 groupC addforce 0.0 0.0 ${forceC} region reg_ez${i}
fix             addforceC27 groupC addforce 0.0 0.0 8.522313622708679759e+01 region reg_ez${i}
fix             addforceC27 groupC addforce 0.0 0.0 8.522313622708679759e+01 region reg_ez27
fix             addforceN${i} groupN addforce 0.0 0.0 ${forceN} region reg_ez${i}
fix             addforceN27 groupN addforce 0.0 0.0 ${forceN} region reg_ez${i}
fix             addforceN27 groupN addforce 0.0 0.0 -5.868221665922465036e+01 region reg_ez${i}
fix             addforceN27 groupN addforce 0.0 0.0 -5.868221665922465036e+01 region reg_ez27
next            forceO
next            forceX
next            forceC
next            forceN
next            i
jump            SELF start_of_loop_1
variable        binlo equal ${z_iter}
variable        binlo equal 4.049999999999999711e-01
next            z_iter
region          reg_ez${i} block INF INF INF INF ${binlo} ${z_iter} units box
region          reg_ez28 block INF INF INF INF ${binlo} ${z_iter} units box
region          reg_ez28 block INF INF INF INF 0.405 ${z_iter} units box
region          reg_ez28 block INF INF INF INF 0.405 4.199999999999999845e-01 units box
fix             addforceO${i} groupO addforce 0.0 0.0 ${forceO} region reg_ez${i}
fix             addforceO28 groupO addforce 0.0 0.0 ${forceO} region reg_ez${i}
fix             addforceO28 groupO addforce 0.0 0.0 -4.251904361388369580e+01 region reg_ez${i}
fix             addforceO28 groupO addforce 0.0 0.0 -4.251904361388369580e+01 region reg_ez28
fix             addforceX${i} groupX addforce 0.0 0.0 ${forceX} region reg_ez${i}
fix             addforceX28 groupX addforce 0.0 0.0 ${forceX} region reg_ez${i}
fix             addforceX28 groupX addforce 0.0 0.0 1.171095944108128606e+02 region reg_ez${i}
fix             addforceX28 groupX addforce 0.0 0.0 1.171095944108128606e+02 region reg_ez28
fix             addforceC${i} groupC addforce 0.0 0.0 ${forceC} region reg_ez${i}
fix             addforceC28 groupC addforce 0.0 0.0 ${forceC} region reg_ez${i}
fix             addforceC28 groupC addforce 0.0 0.0 8.503808722776739160e+01 region reg_ez${i}
fix             addforceC28 groupC addforce 0.0 0.0 8.503808722776739160e+01 region reg_ez28
fix             addforceN${i} groupN addforce 0.0 0.0 ${forceN} region reg_ez${i}
fix             addforceN28 groupN addforce 0.0 0.0 ${forceN} region reg_ez${i}
fix             addforceN28 groupN addforce 0.0 0.0 -5.855479720540643029e+01 region reg_ez${i}
fix             addforceN28 groupN addforce 0.0 0.0 -5.855479720540643029e+01 region reg_ez28
next            forceO
next            forceX
next            forceC
next            forceN
next            i
jump            SELF start_of_loop_1
variable        binlo equal ${z_iter}
variable        binlo equal 4.199999999999999845e-01
next            z_iter
region          reg_ez${i} block INF INF INF INF ${binlo} ${z_iter} units box
region          reg_ez29 block INF INF INF INF ${binlo} ${z_iter} units box
region          reg_ez29 block INF INF INF INF 0.42 ${z_iter} units box
region          reg_ez29 block INF INF INF INF 0.42 4.349999999999999978e-01 units box
fix             addforceO${i} groupO addforce 0.0 0.0 ${forceO} region reg_ez${i}
fix             addforceO29 groupO addforce 0.0 0.0 ${forceO} region reg_ez${i}
fix             addforceO29 groupO addforce 0.0 0.0 -4.242670701541101153e+01 region reg_ez${i}
fix             addforceO29 groupO addforce 0.0 0.0 -4.242670701541101153e+01 region reg_ez29
fix             addforceX${i} groupX addforce 0.0 0.0 ${forceX} region reg_ez${i}
fix             addforceX29 groupX addforce 0.0 0.0 ${forceX} region reg_ez${i}
fix             addforceX29 groupX addforce 0.0 0.0 1.168552730367264303e+02 region reg_ez${i}
fix             addforceX29 groupX addforce 0.0 0.0 1.168552730367264303e+02 region reg_ez29
fix             addforceC${i} groupC addforce 0.0 0.0 ${forceC} region reg_ez${i}
fix             addforceC29 groupC addforce 0.0 0.0 ${forceC} region reg_ez${i}
fix             addforceC29 groupC addforce 0.0 0.0 8.485341403082202305e+01 region reg_ez${i}
fix             addforceC29 groupC addforce 0.0 0.0 8.485341403082202305e+01 region reg_ez29
fix             addforceN${i} groupN addforce 0.0 0.0 ${forceN} region reg_ez${i}
fix             addforceN29 groupN addforce 0.0 0.0 ${forceN} region reg_ez${i}
fix             addforceN29 groupN addforce 0.0 0.0 -5.842763651836321515e+01 region reg_ez${i}
fix             addforceN29 groupN addforce 0.0 0.0 -5.842763651836321515e+01 region reg_ez29
next            forceO
next            forceX
next            forceC
next            forceN
next            i
jump            SELF start_of_loop_1
variable        binlo equal ${z_iter}
variable        binlo equal 4.349999999999999978e-01
next            z_iter
region          reg_ez${i} block INF INF INF INF ${binlo} ${z_iter} units box
region          reg_ez30 block INF INF INF INF ${binlo} ${z_iter} units box
region          reg_ez30 block INF INF INF INF 0.435 ${z_iter} units box
region          reg_ez30 block INF INF INF INF 0.435 4.499999999999999556e-01 units box
fix             addforceO${i} groupO addforce 0.0 0.0 ${forceO} region reg_ez${i}
fix             addforceO30 groupO addforce 0.0 0.0 ${forceO} region reg_ez${i}
fix             addforceO30 groupO addforce 0.0 0.0 -4.233455791006417712e+01 region reg_ez${i}
fix             addforceO30 groupO addforce 0.0 0.0 -4.233455791006417712e+01 region reg_ez30
fix             addforceX${i} groupX addforce 0.0 0.0 ${forceX} region reg_ez${i}
fix             addforceX30 groupX addforce 0.0 0.0 ${forceX} region reg_ez${i}
fix             addforceX30 groupX addforce 0.0 0.0 1.166014680722873891e+02 region reg_ez${i}
fix             addforceX30 groupX addforce 0.0 0.0 1.166014680722873891e+02 region reg_ez30
fix             addforceC${i} groupC addforce 0.0 0.0 ${forceC} region reg_ez${i}
fix             addforceC30 groupC addforce 0.0 0.0 ${forceC} region reg_ez${i}
fix             addforceC30 groupC addforce 0.0 0.0 8.466911582012835424e+01 region reg_ez${i}
fix             addforceC30 groupC addforce 0.0 0.0 8.466911582012835424e+01 region reg_ez30
fix             addforceN${i} groupN addforce 0.0 0.0 ${forceN} region reg_ez${i}
fix             addforceN30 groupN addforce 0.0 0.0 ${forceN} region reg_ez${i}
fix             addforceN30 groupN addforce 0.0 0.0 -5.830073403614369454e+01 region reg_ez${i}
fix             addforceN30 groupN addforce 0.0 0.0 -5.830073403614369454e+01 region reg_ez30
next            forceO
next            forceX
next            forceC
next            forceN
next            i
jump            SELF start_of_loop_1
variable        binlo equal ${z_iter}
variable        binlo equal 4.499999999999999556e-01
next            z_iter
region          reg_ez${i} block INF INF INF INF ${binlo} ${z_iter} units box
region          reg_ez31 block INF INF INF INF ${binlo} ${z_iter} units box
region          reg_ez31 block INF INF INF INF 0.45 ${z_iter} units box
region          reg_ez31 block INF INF INF INF 0.45 4.649999999999999689e-01 units box
fix             addforceO${i} groupO addforce 0.0 0.0 ${forceO} region reg_ez${i}
fix             addforceO31 groupO addforce 0.0 0.0 ${forceO} region reg_ez${i}
fix             addforceO31 groupO addforce 0.0 0.0 -4.224259589061148290e+01 region reg_ez${i}
fix             addforceO31 groupO addforce 0.0 0.0 -4.224259589061148290e+01 region reg_ez31
fix             addforceX${i} groupX addforce 0.0 0.0 ${forceX} region reg_ez${i}
fix             addforceX31 groupX addforce 0.0 0.0 ${forceX} region reg_ez${i}
fix             addforceX31 groupX addforce 0.0 0.0 1.163481783958632150e+02 region reg_ez${i}
fix             addforceX31 groupX addforce 0.0 0.0 1.163481783958632150e+02 region reg_ez31
fix             addforceC${i} groupC addforce 0.0 0.0 ${forceC} region reg_ez${i}
fix             addforceC31 groupC addforce 0.0 0.0 ${forceC} region reg_ez${i}
fix             addforceC31 groupC addforce 0.0 0.0 8.448519178122296580e+01 region reg_ez${i}
fix             addforceC31 groupC addforce 0.0 0.0 8.448519178122296580e+01 region reg_ez31
fix             addforceN${i} groupN addforce 0.0 0.0 ${forceN} region reg_ez${i}
fix             addforceN31 groupN addforce 0.0 0.0 ${forceN} region reg_ez${i}
fix             addforceN31 groupN addforce 0.0 0.0 -5.817408919793160749e+01 region reg_ez${i}
fix             addforceN31 groupN addforce 0.0 0.0 -5.817408919793160749e+01 region reg_ez31
next            forceO
next            forceX
next            forceC
next            forceN
next            i
jump            SELF start_of_loop_1
variable        binlo equal ${z_iter}
variable        binlo equal 4.649999999999999689e-01
next            z_iter
region          reg_ez${i} block INF INF INF INF ${binlo} ${z_iter} units box
region          reg_ez32 block INF INF INF INF ${binlo} ${z_iter} units box
region          reg_ez32 block INF INF INF INF 0.465 ${z_iter} units box
region          reg_ez32 block INF INF INF INF 0.465 4.799999999999999822e-01 units box
fix             addforceO${i} groupO addforce 0.0 0.0 ${forceO} region reg_ez${i}
fix             addforceO32 groupO addforce 0.0 0.0 ${forceO} region reg_ez${i}
fix             addforceO32 groupO addforce 0.0 0.0 -4.215082055066523026e+01 region reg_ez${i}
fix             addforceO32 groupO addforce 0.0 0.0 -4.215082055066523026e+01 region reg_ez32
fix             addforceX${i} groupX addforce 0.0 0.0 ${forceX} region reg_ez${i}
fix             addforceX32 groupX addforce 0.0 0.0 ${forceX} region reg_ez${i}
fix             addforceX32 groupX addforce 0.0 0.0 1.160954028881205886e+02 region reg_ez${i}
fix             addforceX32 groupX addforce 0.0 0.0 1.160954028881205886e+02 region reg_ez32
fix             addforceC${i} groupC addforce 0.0 0.0 ${forceC} region reg_ez${i}
fix             addforceC32 groupC addforce 0.0 0.0 ${forceC} region reg_ez${i}
fix             addforceC32 groupC addforce 0.0 0.0 8.430164110133046051e+01 region reg_ez${i}
fix             addforceC32 groupC addforce 0.0 0.0 8.430164110133046051e+01 region reg_ez32
fix             addforceN${i} groupN addforce 0.0 0.0 ${forceN} region reg_ez${i}
fix             addforceN32 groupN addforce 0.0 0.0 ${forceN} region reg_ez${i}
fix             addforceN32 groupN addforce 0.0 0.0 -5.804770144406029431e+01 region reg_ez${i}
fix             addforceN32 groupN addforce 0.0 0.0 -5.804770144406029431e+01 region reg_ez32
next            forceO
next            forceX
next            forceC
next            forceN
next            i
jump            SELF start_of_loop_1
variable        binlo equal ${z_iter}
variable        binlo equal 4.799999999999999822e-01
next            z_iter
region          reg_ez${i} block INF INF INF INF ${binlo} ${z_iter} units box
region          reg_ez33 block INF INF INF INF ${binlo} ${z_iter} units box
region          reg_ez33 block INF INF INF INF 0.48 ${z_iter} units box
region          reg_ez33 block INF INF INF INF 0.48 4.949999999999999400e-01 units box
fix             addforceO${i} groupO addforce 0.0 0.0 ${forceO} region reg_ez${i}
fix             addforceO33 groupO addforce 0.0 0.0 ${forceO} region reg_ez${i}
fix             addforceO33 groupO addforce 0.0 0.0 -4.205923148464717087e+01 region reg_ez${i}
fix             addforceO33 groupO addforce 0.0 0.0 -4.205923148464717087e+01 region reg_ez33
fix             addforceX${i} groupX addforce 0.0 0.0 ${forceX} region reg_ez${i}
fix             addforceX33 groupX addforce 0.0 0.0 ${forceX} region reg_ez${i}
fix             addforceX33 groupX addforce 0.0 0.0 1.158431404319962894e+02 region reg_ez${i}
fix             addforceX33 groupX addforce 0.0 0.0 1.158431404319962894e+02 region reg_ez33
fix             addforceC${i} groupC addforce 0.0 0.0 ${forceC} region reg_ez${i}
fix             addforceC33 groupC addforce 0.0 0.0 ${forceC} region reg_ez${i}
fix             addforceC33 groupC addforce 0.0 0.0 8.411846296929434175e+01 region reg_ez${i}
fix             addforceC33 groupC addforce 0.0 0.0 8.411846296929434175e+01 region reg_ez33
fix             addforceN${i} groupN addforce 0.0 0.0 ${forceN} region reg_ez${i}
fix             addforceN33 groupN addforce 0.0 0.0 ${forceN} region reg_ez${i}
fix             addforceN33 groupN addforce 0.0 0.0 -5.792157021599814470e+01 region reg_ez${i}
fix             addforceN33 groupN addforce 0.0 0.0 -5.792157021599814470e+01 region reg_ez33
next            forceO
next            forceX
next            forceC
next            forceN
next            i
jump            SELF start_of_loop_1
variable        binlo equal ${z_iter}
variable        binlo equal 4.949999999999999400e-01
next            z_iter
region          reg_ez${i} block INF INF INF INF ${binlo} ${z_iter} units box
region          reg_ez34 block INF INF INF INF ${binlo} ${z_iter} units box
region          reg_ez34 block INF INF INF INF 0.495 ${z_iter} units box
region          reg_ez34 block INF INF INF INF 0.495 5.100000000000001199e-01 units box
fix             addforceO${i} groupO addforce 0.0 0.0 ${forceO} region reg_ez${i}
fix             addforceO34 groupO addforce 0.0 0.0 ${forceO} region reg_ez${i}
fix             addforceO34 groupO addforce 0.0 0.0 -4.196782828779214469e+01 region reg_ez${i}
fix             addforceO34 groupO addforce 0.0 0.0 -4.196782828779214469e+01 region reg_ez34
fix             addforceX${i} groupX addforce 0.0 0.0 ${forceX} region reg_ez${i}
fix             addforceX34 groupX addforce 0.0 0.0 ${forceX} region reg_ez${i}
fix             addforceX34 groupX addforce 0.0 0.0 1.155913899126608158e+02 region reg_ez${i}
fix             addforceX34 groupX addforce 0.0 0.0 1.155913899126608158e+02 region reg_ez34
fix             addforceC${i} groupC addforce 0.0 0.0 ${forceC} region reg_ez${i}
fix             addforceC34 groupC addforce 0.0 0.0 ${forceC} region reg_ez${i}
fix             addforceC34 groupC addforce 0.0 0.0 8.393565657558428939e+01 region reg_ez${i}
fix             addforceC34 groupC addforce 0.0 0.0 8.393565657558428939e+01 region reg_ez34
fix             addforceN${i} groupN addforce 0.0 0.0 ${forceN} region reg_ez${i}
fix             addforceN34 groupN addforce 0.0 0.0 ${forceN} region reg_ez${i}
fix             addforceN34 groupN addforce 0.0 0.0 -5.779569495633040788e+01 region reg_ez${i}
fix             addforceN34 groupN addforce 0.0 0.0 -5.779569495633040788e+01 region reg_ez34
next            forceO
next            forceX
next            forceC
next            forceN
next            i
jump            SELF start_of_loop_1
variable        binlo equal ${z_iter}
variable        binlo equal 5.100000000000001199e-01
next            z_iter
region          reg_ez${i} block INF INF INF INF ${binlo} ${z_iter} units box
region          reg_ez35 block INF INF INF INF ${binlo} ${z_iter} units box
region          reg_ez35 block INF INF INF INF 0.51 ${z_iter} units box
region          reg_ez35 block INF INF INF INF 0.51 5.250000000000000222e-01 units box
fix             addforceO${i} groupO addforce 0.0 0.0 ${forceO} region reg_ez${i}
fix             addforceO35 groupO addforce 0.0 0.0 ${forceO} region reg_ez${i}
fix             addforceO35 groupO addforce 0.0 0.0 -4.187661055617718375e+01 region reg_ez${i}
fix             addforceO35 groupO addforce 0.0 0.0 -4.187661055617718375e+01 region reg_ez35
fix             addforceX${i} groupX addforce 0.0 0.0 ${forceX} region reg_ez${i}
fix             addforceX35 groupX addforce 0.0 0.0 ${forceX} region reg_ez${i}
fix             addforceX35 groupX addforce 0.0 0.0 1.153401502175802307e+02 region reg_ez${i}
fix             addforceX35 groupX addforce 0.0 0.0 1.153401502175802307e+02 region reg_ez35
fix             addforceC${i} groupC addforce 0.0 0.0 ${forceC} region reg_ez${i}
fix             addforceC35 groupC addforce 0.0 0.0 ${forceC} region reg_ez${i}
fix             addforceC35 groupC addforce 0.0 0.0 8.375322111235436751e+01 region reg_ez${i}
fix             addforceC35 groupC addforce 0.0 0.0 8.375322111235436751e+01 region reg_ez35
fix             addforceN${i} groupN addforce 0.0 0.0 ${forceN} region reg_ez${i}
fix             addforceN35 groupN addforce 0.0 0.0 ${forceN} region reg_ez${i}
fix             addforceN35 groupN addforce 0.0 0.0 -5.767007510879011534e+01 region reg_ez${i}
fix             addforceN35 groupN addforce 0.0 0.0 -5.767007510879011534e+01 region reg_ez35
next            forceO
next            forceX
next            forceC
next            forceN
next            i
jump            SELF start_of_loop_1
variable        binlo equal ${z_iter}
variable        binlo equal 5.250000000000000222e-01
next            z_iter
region          reg_ez${i} block INF INF INF INF ${binlo} ${z_iter} units box
region          reg_ez36 block INF INF INF INF ${binlo} ${z_iter} units box
region          reg_ez36 block INF INF INF INF 0.525 ${z_iter} units box
region          reg_ez36 block INF INF INF INF 0.525 5.400000000000000355e-01 units box
fix             addforceO${i} groupO addforce 0.0 0.0 ${forceO} region reg_ez${i}
fix             addforceO36 groupO addforce 0.0 0.0 ${forceO} region reg_ez${i}
fix             addforceO36 groupO addforce 0.0 0.0 -4.178557788669604633e+01 region reg_ez${i}
fix             addforceO36 groupO addforce 0.0 0.0 -4.178557788669604633e+01 region reg_ez36
fix             addforceX${i} groupX addforce 0.0 0.0 ${forceX} region reg_ez${i}
fix             addforceX36 groupX addforce 0.0 0.0 ${forceX} region reg_ez${i}
fix             addforceX36 groupX addforce 0.0 0.0 1.150894202365016099e+02 region reg_ez${i}
fix             addforceX36 groupX addforce 0.0 0.0 1.150894202365016099e+02 region reg_ez36
fix             addforceC${i} groupC addforce 0.0 0.0 ${forceC} region reg_ez${i}
fix             addforceC36 groupC addforce 0.0 0.0 ${forceC} region reg_ez${i}
fix             addforceC36 groupC addforce 0.0 0.0 8.357115577339209267e+01 region reg_ez${i}
fix             addforceC36 groupC addforce 0.0 0.0 8.357115577339209267e+01 region reg_ez36
fix             addforceN${i} groupN addforce 0.0 0.0 ${forceN} region reg_ez${i}
fix             addforceN36 groupN addforce 0.0 0.0 ${forceN} region reg_ez${i}
fix             addforceN36 groupN addforce 0.0 0.0 -5.754471011825080495e+01 region reg_ez${i}
fix             addforceN36 groupN addforce 0.0 0.0 -5.754471011825080495e+01 region reg_ez36
next            forceO
next            forceX
next            forceC
next            forceN
next            i
jump            SELF start_of_loop_1
variable        binlo equal ${z_iter}
variable        binlo equal 5.400000000000000355e-01
next            z_iter
region          reg_ez${i} block INF INF INF INF ${binlo} ${z_iter} units box
region          reg_ez37 block INF INF INF INF ${binlo} ${z_iter} units box
region          reg_ez37 block INF INF INF INF 0.54 ${z_iter} units box
region          reg_ez37 block INF INF INF INF 0.54 5.550000000000000488e-01 units box
fix             addforceO${i} groupO addforce 0.0 0.0 ${forceO} region reg_ez${i}
fix             addforceO37 groupO addforce 0.0 0.0 ${forceO} region reg_ez${i}
fix             addforceO37 groupO addforce 0.0 0.0 -4.169472987705194100e+01 region reg_ez${i}
fix             addforceO37 groupO addforce 0.0 0.0 -4.169472987705194100e+01 region reg_ez37
fix             addforceX${i} groupX addforce 0.0 0.0 ${forceX} region reg_ez${i}
fix             addforceX37 groupX addforce 0.0 0.0 ${forceX} region reg_ez${i}
fix             addforceX37 groupX addforce 0.0 0.0 1.148391988613620924e+02 region reg_ez${i}
fix             addforceX37 groupX addforce 0.0 0.0 1.148391988613620924e+02 region reg_ez37
fix             addforceC${i} groupC addforce 0.0 0.0 ${forceC} region reg_ez${i}
fix             addforceC37 groupC addforce 0.0 0.0 ${forceC} region reg_ez${i}
fix             addforceC37 groupC addforce 0.0 0.0 8.338945975410388201e+01 region reg_ez${i}
fix             addforceC37 groupC addforce 0.0 0.0 8.338945975410388201e+01 region reg_ez37
fix             addforceN${i} groupN addforce 0.0 0.0 ${forceN} region reg_ez${i}
fix             addforceN37 groupN addforce 0.0 0.0 ${forceN} region reg_ez${i}
fix             addforceN37 groupN addforce 0.0 0.0 -5.741959943068104621e+01 region reg_ez${i}
fix             addforceN37 groupN addforce 0.0 0.0 -5.741959943068104621e+01 region reg_ez37
next            forceO
next            forceX
next            forceC
next            forceN
next            i
jump            SELF start_of_loop_1
variable        binlo equal ${z_iter}
variable        binlo equal 5.550000000000000488e-01
next            z_iter
region          reg_ez${i} block INF INF INF INF ${binlo} ${z_iter} units box
region          reg_ez38 block INF INF INF INF ${binlo} ${z_iter} units box
region          reg_ez38 block INF INF INF INF 0.555 ${z_iter} units box
region          reg_ez38 block INF INF INF INF 0.555 5.699999999999999512e-01 units box
fix             addforceO${i} groupO addforce 0.0 0.0 ${forceO} region reg_ez${i}
fix             addforceO38 groupO addforce 0.0 0.0 ${forceO} region reg_ez${i}
fix             addforceO38 groupO addforce 0.0 0.0 -4.160406612575388863e+01 region reg_ez${i}
fix             addforceO38 groupO addforce 0.0 0.0 -4.160406612575388863e+01 region reg_ez38
fix             addforceX${i} groupX addforce 0.0 0.0 ${forceX} region reg_ez${i}
fix             addforceX38 groupX addforce 0.0 0.0 ${forceX} region reg_ez${i}
fix             addforceX38 groupX addforce 0.0 0.0 1.145894849863689160e+02 region reg_ez${i}
fix             addforceX38 groupX addforce 0.0 0.0 1.145894849863689160e+02 region reg_ez38
fix             addforceC${i} groupC addforce 0.0 0.0 ${forceC} region reg_ez${i}
fix             addforceC38 groupC addforce 0.0 0.0 ${forceC} region reg_ez${i}
fix             addforceC38 groupC addforce 0.0 0.0 8.320813225150777726e+01 region reg_ez${i}
fix             addforceC38 groupC addforce 0.0 0.0 8.320813225150777726e+01 region reg_ez38
fix             addforceN${i} groupN addforce 0.0 0.0 ${forceN} region reg_ez${i}
fix             addforceN38 groupN addforce 0.0 0.0 ${forceN} region reg_ez${i}
fix             addforceN38 groupN addforce 0.0 0.0 -5.729474249318445800e+01 region reg_ez${i}
fix             addforceN38 groupN addforce 0.0 0.0 -5.729474249318445800e+01 region reg_ez38
next            forceO
next            forceX
next            forceC
next            forceN
next            i
jump            SELF start_of_loop_1
variable        binlo equal ${z_iter}
variable        binlo equal 5.699999999999999512e-01
next            z_iter
region          reg_ez${i} block INF INF INF INF ${binlo} ${z_iter} units box
region          reg_ez39 block INF INF INF INF ${binlo} ${z_iter} units box
region          reg_ez39 block INF INF INF INF 0.57 ${z_iter} units box
region          reg_ez39 block INF INF INF INF 0.57 5.850000000000000755e-01 units box
fix             addforceO${i} groupO addforce 0.0 0.0 ${forceO} region reg_ez${i}
fix             addforceO39 groupO addforce 0.0 0.0 ${forceO} region reg_ez${i}
fix             addforceO39 groupO addforce 0.0 0.0 -4.151358623215855914e+01 region reg_ez${i}
fix             addforceO39 groupO addforce 0.0 0.0 -4.151358623215855914e+01 region reg_ez39
fix             addforceX${i} groupX addforce 0.0 0.0 ${forceX} region reg_ez${i}
fix             addforceX39 groupX addforce 0.0 0.0 ${forceX} region reg_ez${i}
fix             addforceX39 groupX addforce 0.0 0.0 1.143402775080066931e+02 region reg_ez${i}
fix             addforceX39 groupX addforce 0.0 0.0 1.143402775080066931e+02 region reg_ez39
fix             addforceC${i} groupC addforce 0.0 0.0 ${forceC} region reg_ez${i}
fix             addforceC39 groupC addforce 0.0 0.0 ${forceC} region reg_ez${i}
[...]
fix             addforceC1995 groupC addforce 0.0 0.0 ${forceC} region reg_ez${i}
fix             addforceC1995 groupC addforce 0.0 0.0 -8.919743869652666035e+01 region reg_ez${i}
fix             addforceC1995 groupC addforce 0.0 0.0 -8.919743869652666035e+01 region reg_ez1995
fix             addforceN${i} groupN addforce 0.0 0.0 ${forceN} region reg_ez${i}
fix             addforceN1995 groupN addforce 0.0 0.0 ${forceN} region reg_ez${i}
fix             addforceN1995 groupN addforce 0.0 0.0 6.141880778817903774e+01 region reg_ez${i}
fix             addforceN1995 groupN addforce 0.0 0.0 6.141880778817903774e+01 region reg_ez1995
next            forceO
next            forceX
next            forceC
next            forceN
next            i
jump            SELF start_of_loop_1
variable        binlo equal ${z_iter}
variable        binlo equal 2.992499999999999716e+01
next            z_iter
region          reg_ez${i} block INF INF INF INF ${binlo} ${z_iter} units box
region          reg_ez1996 block INF INF INF INF ${binlo} ${z_iter} units box
region          reg_ez1996 block INF INF INF INF 29.925 ${z_iter} units box
region          reg_ez1996 block INF INF INF INF 29.925 2.993999999999999773e+01 units box
fix             addforceO${i} groupO addforce 0.0 0.0 ${forceO} region reg_ez${i}
fix             addforceO1996 groupO addforce 0.0 0.0 ${forceO} region reg_ez${i}
fix             addforceO1996 groupO addforce 0.0 0.0 4.469548261222553265e+01 region reg_ez${i}
fix             addforceO1996 groupO addforce 0.0 0.0 4.469548261222553265e+01 region reg_ez1996
fix             addforceX${i} groupX addforce 0.0 0.0 ${forceX} region reg_ez${i}
fix             addforceX1996 groupX addforce 0.0 0.0 ${forceX} region reg_ez${i}
fix             addforceX1996 groupX addforce 0.0 0.0 -1.231041292519548733e+02 region reg_ez${i}
fix             addforceX1996 groupX addforce 0.0 0.0 -1.231041292519548733e+02 region reg_ez1996
fix             addforceC${i} groupC addforce 0.0 0.0 ${forceC} region reg_ez${i}
fix             addforceC1996 groupC addforce 0.0 0.0 ${forceC} region reg_ez${i}
fix             addforceC1996 groupC addforce 0.0 0.0 -8.939096522445106530e+01 region reg_ez${i}
fix             addforceC1996 groupC addforce 0.0 0.0 -8.939096522445106530e+01 region reg_ez1996
fix             addforceN${i} groupN addforce 0.0 0.0 ${forceN} region reg_ez${i}
fix             addforceN1996 groupN addforce 0.0 0.0 ${forceN} region reg_ez${i}
fix             addforceN1996 groupN addforce 0.0 0.0 6.155206462597743666e+01 region reg_ez${i}
fix             addforceN1996 groupN addforce 0.0 0.0 6.155206462597743666e+01 region reg_ez1996
next            forceO
next            forceX
next            forceC
next            forceN
next            i
jump            SELF start_of_loop_1
variable        binlo equal ${z_iter}
variable        binlo equal 2.993999999999999773e+01
next            z_iter
region          reg_ez${i} block INF INF INF INF ${binlo} ${z_iter} units box
region          reg_ez1997 block INF INF INF INF ${binlo} ${z_iter} units box
region          reg_ez1997 block INF INF INF INF 29.94 ${z_iter} units box
region          reg_ez1997 block INF INF INF INF 29.94 2.995499999999999829e+01 units box
fix             addforceO${i} groupO addforce 0.0 0.0 ${forceO} region reg_ez${i}
fix             addforceO1997 groupO addforce 0.0 0.0 ${forceO} region reg_ez${i}
fix             addforceO1997 groupO addforce 0.0 0.0 4.479244339553406462e+01 region reg_ez${i}
fix             addforceO1997 groupO addforce 0.0 0.0 4.479244339553406462e+01 region reg_ez1997
fix             addforceX${i} groupX addforce 0.0 0.0 ${forceX} region reg_ez${i}
fix             addforceX1997 groupX addforce 0.0 0.0 ${forceX} region reg_ez${i}
fix             addforceX1997 groupX addforce 0.0 0.0 -1.233711869522667257e+02 region reg_ez${i}
fix             addforceX1997 groupX addforce 0.0 0.0 -1.233711869522667257e+02 region reg_ez1997
fix             addforceC${i} groupC addforce 0.0 0.0 ${forceC} region reg_ez${i}
fix             addforceC1997 groupC addforce 0.0 0.0 ${forceC} region reg_ez${i}
fix             addforceC1997 groupC addforce 0.0 0.0 -8.958488679106812924e+01 region reg_ez${i}
fix             addforceC1997 groupC addforce 0.0 0.0 -8.958488679106812924e+01 region reg_ez1997
fix             addforceN${i} groupN addforce 0.0 0.0 ${forceN} region reg_ez${i}
fix             addforceN1997 groupN addforce 0.0 0.0 ${forceN} region reg_ez${i}
fix             addforceN1997 groupN addforce 0.0 0.0 6.168559347613336286e+01 region reg_ez${i}
fix             addforceN1997 groupN addforce 0.0 0.0 6.168559347613336286e+01 region reg_ez1997
next            forceO
next            forceX
next            forceC
next            forceN
next            i
jump            SELF start_of_loop_1
variable        binlo equal ${z_iter}
variable        binlo equal 2.995499999999999829e+01
next            z_iter
region          reg_ez${i} block INF INF INF INF ${binlo} ${z_iter} units box
region          reg_ez1998 block INF INF INF INF ${binlo} ${z_iter} units box
region          reg_ez1998 block INF INF INF INF 29.955 ${z_iter} units box
region          reg_ez1998 block INF INF INF INF 29.955 2.996999999999999886e+01 units box
fix             addforceO${i} groupO addforce 0.0 0.0 ${forceO} region reg_ez${i}
fix             addforceO1998 groupO addforce 0.0 0.0 ${forceO} region reg_ez${i}
fix             addforceO1998 groupO addforce 0.0 0.0 4.488960212669189787e+01 region reg_ez${i}
fix             addforceO1998 groupO addforce 0.0 0.0 4.488960212669189787e+01 region reg_ez1998
fix             addforceX${i} groupX addforce 0.0 0.0 ${forceX} region reg_ez${i}
fix             addforceX1998 groupX addforce 0.0 0.0 ${forceX} region reg_ez${i}
fix             addforceX1998 groupX addforce 0.0 0.0 -1.236387898575121653e+02 region reg_ez${i}
fix             addforceX1998 groupX addforce 0.0 0.0 -1.236387898575121653e+02 region reg_ez1998
fix             addforceC${i} groupC addforce 0.0 0.0 ${forceC} region reg_ez${i}
fix             addforceC1998 groupC addforce 0.0 0.0 ${forceC} region reg_ez${i}
fix             addforceC1998 groupC addforce 0.0 0.0 -8.977920425338379573e+01 region reg_ez${i}
fix             addforceC1998 groupC addforce 0.0 0.0 -8.977920425338379573e+01 region reg_ez1998
fix             addforceN${i} groupN addforce 0.0 0.0 ${forceN} region reg_ez${i}
fix             addforceN1998 groupN addforce 0.0 0.0 ${forceN} region reg_ez${i}
fix             addforceN1998 groupN addforce 0.0 0.0 6.181939492875608266e+01 region reg_ez${i}
fix             addforceN1998 groupN addforce 0.0 0.0 6.181939492875608266e+01 region reg_ez1998
next            forceO
next            forceX
next            forceC
next            forceN
next            i
jump            SELF start_of_loop_1
variable        binlo equal ${z_iter}
variable        binlo equal 2.996999999999999886e+01
next            z_iter
region          reg_ez${i} block INF INF INF INF ${binlo} ${z_iter} units box
region          reg_ez1999 block INF INF INF INF ${binlo} ${z_iter} units box
region          reg_ez1999 block INF INF INF INF 29.97 ${z_iter} units box
region          reg_ez1999 block INF INF INF INF 29.97 2.998499999999999943e+01 units box
fix             addforceO${i} groupO addforce 0.0 0.0 ${forceO} region reg_ez${i}
fix             addforceO1999 groupO addforce 0.0 0.0 ${forceO} region reg_ez${i}
fix             addforceO1999 groupO addforce 0.0 0.0 4.498695923506238614e+01 region reg_ez${i}
fix             addforceO1999 groupO addforce 0.0 0.0 4.498695923506238614e+01 region reg_ez1999
fix             addforceX${i} groupX addforce 0.0 0.0 ${forceX} region reg_ez${i}
fix             addforceX1999 groupX addforce 0.0 0.0 ${forceX} region reg_ez${i}
fix             addforceX1999 groupX addforce 0.0 0.0 -1.239069391502998769e+02 region reg_ez${i}
fix             addforceX1999 groupX addforce 0.0 0.0 -1.239069391502998769e+02 region reg_ez1999
fix             addforceC${i} groupC addforce 0.0 0.0 ${forceC} region reg_ez${i}
fix             addforceC1999 groupC addforce 0.0 0.0 ${forceC} region reg_ez${i}
fix             addforceC1999 groupC addforce 0.0 0.0 -8.997391847012477228e+01 region reg_ez${i}
fix             addforceC1999 groupC addforce 0.0 0.0 -8.997391847012477228e+01 region reg_ez1999
fix             addforceN${i} groupN addforce 0.0 0.0 ${forceN} region reg_ez${i}
fix             addforceN1999 groupN addforce 0.0 0.0 ${forceN} region reg_ez${i}
fix             addforceN1999 groupN addforce 0.0 0.0 6.195346957514993846e+01 region reg_ez${i}
fix             addforceN1999 groupN addforce 0.0 0.0 6.195346957514993846e+01 region reg_ez1999
next            forceO
next            forceX
next            forceC
next            forceN
next            i
jump            SELF start_of_loop_1
variable        binlo equal ${z_iter}
variable        binlo equal 2.998499999999999943e+01
next            z_iter
region          reg_ez${i} block INF INF INF INF ${binlo} ${z_iter} units box
region          reg_ez2000 block INF INF INF INF ${binlo} ${z_iter} units box
region          reg_ez2000 block INF INF INF INF 29.985 ${z_iter} units box
region          reg_ez2000 block INF INF INF INF 29.985 2.999249999999999972e+01 units box
fix             addforceO${i} groupO addforce 0.0 0.0 ${forceO} region reg_ez${i}
fix             addforceO2000 groupO addforce 0.0 0.0 ${forceO} region reg_ez${i}
fix             addforceO2000 groupO addforce 0.0 0.0 4.503568743727460344e+01 region reg_ez${i}
fix             addforceO2000 groupO addforce 0.0 0.0 4.503568743727460344e+01 region reg_ez2000
fix             addforceX${i} groupX addforce 0.0 0.0 ${forceX} region reg_ez${i}
fix             addforceX2000 groupX addforce 0.0 0.0 ${forceX} region reg_ez${i}
fix             addforceX2000 groupX addforce 0.0 0.0 -1.240411505415399915e+02 region reg_ez${i}
fix             addforceX2000 groupX addforce 0.0 0.0 -1.240411505415399915e+02 region reg_ez2000
fix             addforceC${i} groupC addforce 0.0 0.0 ${forceC} region reg_ez${i}
fix             addforceC2000 groupC addforce 0.0 0.0 ${forceC} region reg_ez${i}
fix             addforceC2000 groupC addforce 0.0 0.0 -9.007137487454920688e+01 region reg_ez${i}
fix             addforceC2000 groupC addforce 0.0 0.0 -9.007137487454920688e+01 region reg_ez2000
fix             addforceN${i} groupN addforce 0.0 0.0 ${forceN} region reg_ez${i}
fix             addforceN2000 groupN addforce 0.0 0.0 ${forceN} region reg_ez${i}
fix             addforceN2000 groupN addforce 0.0 0.0 6.202057527076999577e+01 region reg_ez${i}
fix             addforceN2000 groupN addforce 0.0 0.0 6.202057527076999577e+01 region reg_ez2000
next            forceO
next            forceX
next            forceC
next            forceN
next            i
jump            SELF start_of_loop_1

velocity all zero linear

# --------------------- run equilibration  ---------------------

run          ${timeequil}
run          80000

CITE-CITE-CITE-CITE-CITE-CITE-CITE-CITE-CITE-CITE-CITE-CITE-CITE

Your simulation uses code contributions which should be cited:

- Type Label Framework: https://doi.org/10.1021/acs.jpcb.3c08419

@Article{Gissinger24,
 author = {Jacob R. Gissinger, Ilia Nikiforov, Yaser Afshar, Brendon Waters, Moon-ki Choi, Daniel S. Karls, Alexander Stukowski, Wonpil Im, Hendrik Heinz, Axel Kohlmeyer, and Ellad B. Tadmor},
 title = {Type Label Framework for Bonded Force Fields in LAMMPS},
 journal = {J. Phys. Chem. B},
 year =    2024,
 volume =  128,
 number =  13,
 pages =   {3282-3297}
}

CITE-CITE-CITE-CITE-CITE-CITE-CITE-CITE-CITE-CITE-CITE-CITE-CITE

PPPM initialization ...
  using polynomial approximation for long-range coulomb (src/kspace.cpp:344)
  G vector (1/distance) = 0.19590637
  grid = 15 15 15
  stencil order = 5
  estimated absolute RMS force accuracy = 0.0028000352
  estimated relative force accuracy = 8.4322228e-06
  using double precision FFTW3
  3d grid and FFT values/proc = 9261 3375
Generated 0 of 6 mixed pair_coeff terms from geometric mixing rule
WARNING: Bonds are defined but no bond style is set (src/force.cpp:197)
WARNING: Likewise 1-2 special neighbor interactions != 1.0 (src/force.cpp:199)
Neighbor list info ...
  update: every = 1 steps, delay = 5 steps, check = yes
  max neighbors/atom: 2000, page size: 100000
  master list distance cutoff = 17
  ghost atom cutoff = 17
  binsize = 8.5, bins = 4 4 4
  1 neighbor lists, perpetual/occasional/extra = 1 0 0
  (1) pair lj/cut/coul/long, perpetual
      attributes: half, newton on
      pair build: half/bin/newton
      stencil: half/bin/3d
      bin: standard
Per MPI rank memory allocation (min/avg/max) = 9.394 | 9.394 | 9.394 Mbytes
   Step          Temp          PotEng         KinEng        Enthalpy          Lx           Volume         Press     
         0   263.57403      5817.5779      253.24574      5807.6212      30             27000         -668.42137    
       100   4308.4415      463.35716      4139.6128      8138.4878      30             27000          8978.6982    
       200   2956.2282      346.2998       2840.3867      5662.8112      30             27000          6288.2942    
       300   2417.648       59.355525      2322.9111      3810.6304      30             27000          3627.4311    
       400   1835.3591      54.319368      1763.4395      3266.2215      30             27000          3678.4735    
       500   1456.4528      70.272636      1399.3809      2843.3273      30             27000          3488.542     
       600   1221.7621     -7.7929975      1173.8867      2115.2295      30             27000          2410.3978    
       700   1067.386      -50.30616       1025.5599      1760.6663      30             27000          1994.6108    
       800   898.90854     -46.472541      863.6843       1564.2213      30             27000          1897.0837    
       900   776.32603     -45.959774      745.90526      1460.7573      30             27000          1932.1356    
      1000   703.23251     -65.123148      675.67595      1222.5761      30             27000          1554.2766    
      1100   628.33112     -78.633282      603.70962      1033.0425      30             27000          1290.0161    
      1200   576.46517     -82.123466      553.87606      961.50119      30             27000          1243.7513    
      1300   515.78667     -79.198076      495.57528      968.46137      30             27000          1402.0569    
      1400   482.96705     -80.958675      464.04171      871.83579      30             27000          1241.2223    
      1500   467.85397     -104.3447       449.52085      685.68168      30             27000          864.73795    
      1600   443.33963     -110.64219      425.96712      693.19175      30             27000          959.6196     
      1700   428.92427     -118.44102      412.11663      612.51989      30             27000          809.72765    
      1800   400.20658     -108.30318      384.52426      638.47343      30             27000          919.96554    
      1900   380.88198     -112.4322       365.9569       560.7681       30             27000          780.26638    
      2000   369.61361     -117.42118      355.1301       498.09208      30             27000          661.2615     
      2100   349.5705      -120.66114      335.87238      446.17367      30             27000          586.54546    
      2200   330.23711     -120.14652      317.29658      412.59981      30             27000          547.1499     
      2300   311.82292     -117.45897      299.60396      409.11346      30             27000          576.4025     
      2400   305.34961     -114.53655      293.38432      407.36759      30             27000          580.34228    
      2500   299.61198     -114.775        287.87151      388.65241      30             27000          547.41949    
      2600   303.66105     -126.18829      291.76192      319.26549      30             27000          390.31138    
      2700   298.93844     -129.47665      287.22437      303.99784      30             27000          371.41256    
      2800   288.63395     -126.74304      277.32367      306.25619      30             27000          395.34912    
      2900   281.39361     -127.5873       270.36705      303.34603      30             27000          407.76948    
      3000   290.44193     -132.97535      279.0608       296.22435      30             27000          381.28839    
      3100   291.96362     -128.50146      280.52286      320.42858      30             27000          427.68196    
      3200   323.90965     -129.66288      311.21707      344.97884      30             27000          415.02847    
      3300   308.99722     -130.32591      296.88899      327.43533      30             27000          408.5465     
      3400   292.51801     -127.3203       281.05552      334.53435      30             27000          459.15219    
      3500   304.34883     -129.25158      292.42275      325.79632      30             27000          412.99809    
      3600   276.17195     -120.55281      265.35         360.06627      30             27000          546.6911     
      3700   289.36738     -136.12325      278.02835      272.70069      30             27000          332.16467    
      3800   278.41627     -140.64295      267.50637      223.90578      30             27000          246.44595    
      3900   269.55172     -137.53928      258.98918      244.95214      30             27000          313.64268    
      4000   264.56904     -132.66176      254.20176      255.54022      30             27000          340.30305    
      4100   261.14676     -137.53224      250.91358      233.80282      30             27000          305.81889    
      4200   256.47162     -139.54548      246.42164      225.44202      30             27000          301.10641    
      4300   259.68745     -138.25026      249.51146      253.00297      30             27000          359.9633     
      4400   261.40886     -140.52135      251.16541      250.40595      30             27000          354.93522    
      4500   276.86353     -142.73529      266.01447      281.65065      30             27000          402.19558    
      4600   293.66999     -135.63755      282.16236      344.61858      30             27000          503.07319    
      4700   291.98745     -133.59465      280.54576      358.30743      30             27000          536.75438    
      4800   278.71122     -137.32604      267.78976      319.64633      30             27000          480.44265    
      4900   273.88707     -135.92278      263.15465      324.9513       30             27000          502.12251    
      5000   262.04646     -130.45947      251.77802      365.21333      30             27000          619.38809    
      5100   269.95109     -136.64905      259.37291      308.5747       30             27000          471.9814     
      5200   267.06885     -139.36495      256.60361      296.31093      30             27000          454.76674    
      5300   273.91337     -137.82343      263.17992      318.73508      30             27000          491.09867    
      5400   270.75652     -137.25441      260.14678      314.06742      30             27000          485.50263    
      5500   277.14757     -141.76967      266.28739      287.81902      30             27000          414.71523    
      5600   276.02287     -147.29803      265.20676      252.69876      30             27000          342.30882    
      5700   269.50196     -143.848        258.94138      275.93493      30             27000          408.46853    
      5800   265.33489     -138.8668       254.93759      295.55158      30             27000          455.80419    
      5900   254.90539     -134.26561      244.91678      299.10529      30             27000          478.59258    
      6000   252.85895     -131.28797      242.95053      303.24663      30             27000          486.54132    
