(written by ASE)

900 atoms
4 atom types

0.0                      30  xlo xhi
0.0                      30  ylo yhi
0.0                      30  zlo zhi

Atoms # atomic

     1   4      12.548996000000001               11.796806      4.5921599999999998
     2   2               12.405516               12.232968      4.2893780000000001
     3   2               11.949235               10.831738      4.4852449999999999
     4   4                3.348052               17.954625      17.117868000000001
     5   2      3.6474479999999998      18.388978000000002      16.962306999999999
     6   2      3.1495769999999998      17.793337999999999      18.230115000000001
     7   4      21.286684999999999               27.472545               25.757375
     8   2      21.807483999999999               27.397053      25.917279000000001
     9   2      20.619465999999999               26.558864      25.607358000000001
    10   4               26.889675      9.6743830000000006      20.215188000000001
    11   2      26.715115999999998      9.2005130000000008      19.997298000000001
    12   2               27.789368      9.6585400000000003               20.917185
    13   4               21.893749      4.6923430000000002                5.142709
    14   2      22.090706000000001      5.1751959999999997      5.3175270000000001
    15   2      22.515961000000001                3.750721      5.3121179999999999
    16   4               17.475099               14.216364               14.063727
    17   2      17.565453999999999      14.284058999999999                13.52544
    18   2      18.358350999999999      14.287789999999999               14.782938
    19   4               23.103534               25.534319      21.114028999999999
    20   2               23.570753      25.262893999999999      21.011386999999999
    21   2      22.266898000000001               24.996865      21.674102999999999
    22   4      4.6898070000000001      5.5474449999999997      3.8906230000000002
    23   2                4.906828      5.0487070000000003                3.972248
    24   2      5.2503679999999999      6.2896609999999997      3.2292709999999998
    25   4      24.374431999999999               17.263379      27.745118000000002
    26   2      24.004947000000001      17.538032000000001               27.444208
    27   2      25.461099999999998      17.242418000000001                27.39696
    28   4      22.968046999999999      19.911767000000001      21.482624000000001
    29   2      22.715496000000002               19.802699      21.006364999999999
    30   2      24.093292999999999      20.102278999999999               21.477456
    31   4               25.726644      5.8529450000000001      27.440259000000001
    32   2               26.052108      5.5719500000000002      27.097308000000002
    33   2               24.728234      5.3949930000000004      27.750026999999999
    34   4      22.411543999999999      23.556184999999999      26.765574999999998
    35   2      22.153352999999999      23.097884000000001               26.926192
    36   2               21.831937      24.330414999999999      26.159666999999999
    37   4      25.328282999999999      24.124950999999999               14.896182
    38   2               25.340695      24.481985999999999               15.314359
    39   2      26.036148000000001      23.229945000000001      14.915940000000001
    40   4      3.7086779999999999      20.146750000000001               19.422065
    41   2      3.3453949999999999      20.552765000000001               19.497411
    42   2                4.815207               20.409454      19.326782999999999
    43   4      13.985563000000001      20.661660000000001      17.869457000000001
    44   2               13.547599      20.967275999999998                17.73798
    45   2               14.860922      20.611985000000001      17.138856000000001
    46   4               26.159768      20.988275000000002      5.6800689999999996
    47   2      25.853514000000001      21.308143000000001      6.0062490000000004
    48   2      25.661117000000001      20.466923000000001      4.7957400000000003
    49   4      26.784189999999999               26.024452      6.0340179999999997
    50   2      26.394683000000001               25.673185      6.1995360000000002
    51   2      26.571148000000001      27.144621000000001      6.0823299999999998
    52   4                5.719252      20.525570999999999      27.310206000000001
    53   2      5.7317999999999998      20.601680999999999               26.765642
    54   2      6.6916989999999998               20.276888               27.853348
    55   4      27.323592999999999      5.0844230000000001               24.422549
    56   2      27.480719000000001      5.1289680000000004               23.897357
    57   2      26.598614000000001      4.2515320000000001      24.710989000000001
    58   4               21.178839      21.309287999999999               11.686207
    59   2               21.298347      20.797025999999999               11.525566
    60   2      21.658609999999999      21.712648000000002      12.639946999999999
    61   4               16.217672                9.898847      15.065592000000001
    62   2      16.322116999999999      9.8738279999999996                14.52618
    63   2               15.131449      9.9079250000000005               15.415644
    64   4      20.177067999999998      21.667138999999999      27.352250000000002
    65   2      20.168918000000001      21.226275000000001      27.680993000000001
    66   2      21.117111999999999      21.880255999999999      26.741185999999999
    67   4      7.5749060000000004      8.0921040000000009      24.447189000000002
    68   2                 7.03369      8.1887659999999993      24.431639000000001
    69   2      8.0313780000000001                7.393256      23.668893000000001
    70   4               21.337111      24.288004999999998      15.529424000000001
    71   2      21.340541000000002      24.548514999999998               15.045045
    72   2               22.189556      23.569504999999999               15.773546
    73   4      27.117854999999999               13.882747               18.896279
    74   2      27.232597999999999      13.397271999999999      18.664657999999999
    75   2      26.244668000000001               14.494057      18.488423999999998
    76   4      2.7283189999999999      24.193881000000001      25.683268999999999
    77   2                 2.90062               24.497121      25.257995000000001
    78   2      3.3066080000000002      24.245691000000001      26.665814999999998
    79   4      21.892195000000001      8.8603860000000001      18.673469999999998
    80   2      21.497257999999999      8.4845550000000003               18.600835
    81   2      21.932386999999999                9.432321      19.660270000000001
    82   4      9.0526280000000003               21.045728      23.811019999999999
    83   2      9.3671740000000003      20.745795000000001               24.148069
    84   2      9.5245890000000006               21.922452      23.253250999999999
    85   4      6.1432140000000004      23.274484999999999               11.481474
    86   2      5.7022040000000001      23.552157999999999               11.305669
    87   2      6.3052479999999997      23.153576000000001               12.604695
    88   4      15.813973000000001      2.9857109999999998               12.780911
    89   2               16.064159      2.9211839999999998      13.266444999999999
    90   2      14.701124999999999      2.7460529999999999               12.699463
    91   4      9.0814599999999999      2.3165230000000001      6.6123710000000004
    92   2      9.0744129999999998      2.0128529999999998      6.1538570000000004
    93   2               10.083428      2.5299049999999998      7.1153899999999997
    94   4      24.879902000000001               11.930947      10.029337999999999
    95   2      24.546047999999999               12.254038      9.7349689999999995
    96   2      24.471551000000002               10.948084               10.441322
    97   4      25.168085000000001      17.077227000000001               23.822125
    98   2               25.011011               17.189999      23.307237000000001
    99   2      24.644175000000001               16.233711               24.384708
   100   4      12.051194000000001      6.3307229999999999      17.872178000000002
   101   2               11.804288      6.4539140000000002      18.347951999999999
   102   2      13.191539000000001      6.3367639999999996      17.826598000000001
   103   4      16.834382000000002      4.1449559999999996      25.362552999999998
   104   2      17.245211000000001      3.8705880000000001      25.604299999999999
   105   2      17.080922999999999      4.8744589999999999      24.520209000000001
   106   4               10.956761      21.780646000000001               15.393445
   107   2               11.138945      21.276990000000001      15.518503000000001
   108   2               10.077665               21.884397      14.673080000000001
   109   4                9.501989      16.250889999999998               21.421726
   110   2      9.9624299999999995               16.306331      21.126055999999998
   111   2      9.4819040000000001      15.488269000000001      22.270551000000001
   112   4                7.716119               20.325364               12.066412
   113   2      7.4558270000000002      20.064409000000001               11.658184
   114   2      7.9739959999999996      21.429577999999999               11.937139
   115   4      6.9494619999999996      25.303308000000001               10.982695
   116   2                6.491994               25.257268               10.680863
   117   2                7.943206      24.972702999999999      10.529180999999999
   118   4      8.8536680000000008      17.509430999999999      25.218340999999999
   119   2      8.3107690000000005      17.528027999999999               25.304454
   120   2      9.5285840000000004      18.216118999999999                 25.8079
   121   4               17.501203      17.537393999999999               13.292925
   122   2                17.23066      17.442969000000002               13.762383
   123   2      17.065929000000001      17.136451000000001               12.317076
   124   4                3.907886               14.266067      9.6858880000000003
   125   2      3.7490190000000001               13.886498      9.3209370000000007
   126   2      3.1881780000000002               14.561353               10.520949
   127   4      12.750648999999999      9.1157419999999991      19.057127000000001
   128   2               12.729478      8.8497529999999998      18.576188999999999
   129   2      13.360175999999999      8.6634469999999997      19.909420999999998
   130   4      16.933229000000001      8.2420349999999996               23.286258
   131   2               17.410131      8.1518099999999993      23.544954000000001
   132   2      16.923362000000001      8.2715409999999991      22.145410999999999
   133   4      19.898281999999998      16.526907000000001      10.576693000000001
   134   2      19.788782000000001      16.591968999999999               10.041644
   135   2      20.780957999999998      15.870867000000001               10.881644
   136   4      9.8275780000000008               11.029342               15.766546
   137   2      9.4259869999999992      10.858104000000001      16.101064000000001
   138   2      10.523694000000001               10.253957      15.301035000000001
   139   4                5.130871      9.4583670000000009      20.653559999999999
   140   2      4.7272420000000004      9.1082169999999998      20.523260000000001
   141   2      5.1923760000000003               10.456222      20.103103000000001
   142   4               16.343294               19.405794               24.478064
   143   2      16.139240999999998      19.204689999999999      24.947552999999999
   144   2      16.944164000000001      20.375544999999999               24.510292
   145   4      24.186285000000002      24.977620999999999      7.2644500000000001
   146   2      24.220648000000001               24.926814      7.8110189999999999
   147   2      23.275006999999999               25.498797      6.8167350000000004
   148   4      18.499860000000002      6.2396880000000001      3.7769780000000002
   149   2      18.141787000000001      5.9774510000000003      4.1018090000000003
   150   2      18.889275999999999      5.7076120000000001      2.8454459999999999
   151   4      19.023409999999998      3.1932070000000001      5.0997409999999999
   152   2      19.013649000000001                3.189028      5.6496389999999996
   153   2      20.018197000000001      3.0257429999999998      4.5660239999999996
   154   4               10.865698      12.347232999999999      11.442488000000001
   155   2               11.107462      12.432351000000001               10.955862
   156   2               11.495089      12.428591000000001               12.391038
   157   4      12.870226000000001      3.1941959999999998      20.411090999999999
   158   2                12.72939                3.131262      20.939015999999999
   159   2               12.513653      4.1241490000000001               19.853828
   160   4      20.576249000000001      12.313826000000001      24.154440000000001
   161   2               20.068507                12.42989      24.331150999999998
   162   2      20.844360999999999      11.228279000000001      23.925958999999999
   163   4               27.906955               16.065324               20.613101
   164   2      27.989125999999999      16.087343000000001               21.156482
   165   2      26.962116999999999                16.53687               20.180173
   166   4      17.296655999999999      6.7482829999999998      9.2730390000000007
   167   2      17.203523000000001      6.7495200000000004      9.8150949999999995
   168   2               18.166919      7.3623620000000001      8.8631010000000003
   169   4               11.025325                 23.8626      12.044143999999999
   170   2               10.522432               23.668706      11.934582000000001
   171   2      11.902312999999999               23.132769      12.071334999999999
   172   4               16.810651      3.5536889999999999      5.5908499999999997
   173   2      16.291606999999999      3.4229810000000001      5.7173769999999999
   174   2               17.369978      2.9114710000000001      4.8311080000000004
   175   4               10.943897               10.567917      12.834797999999999
   176   2                10.93553      10.568873999999999               12.284863
   177   2                10.06047      11.019171999999999               13.399089
   178   4      3.5566650000000002      26.161352000000001               12.448134
   179   2      3.6532580000000001               26.561954      12.083869999999999
   180   2      4.4201430000000004      25.485219000000001      12.763965000000001
   181   4               19.977394      21.366779000000001      24.948018999999999
   182   2      19.933720999999998               20.828208      24.845382000000001
   183   2      20.272220999999998      21.704530999999999               25.997543
   184   4      24.638159000000002      16.727004000000001      15.437613000000001
   185   2      24.668109000000001      16.779561999999999      15.984275999999999
   186   2               25.375771               17.307112               14.788072
   187   4      12.216127999999999      10.897259999999999      14.522104000000001
   188   2               11.989412               10.396314      14.509736999999999
   189   2               12.754287               11.234147      15.470466999999999
   190   4      23.872976000000001      5.6705519999999998               17.583323
   191   2      24.319486000000001      5.7343409999999997      17.898061999999999
   192   2                23.33023      6.6000110000000003      17.203807999999999
   193   4      13.032830000000001               12.386167      20.831233000000001
   194   2               13.020503      12.791456999999999      20.459631000000002
   195   2               13.441628               12.607825      21.873467000000002
   196   4      27.886289000000001      4.8628439999999999      11.421075999999999
   197   2      27.838781999999998                5.369078      11.211385999999999
   198   2      27.497409000000001      3.9776359999999999      10.814711000000001
   199   4      9.7610799999999998      9.1870770000000004               15.802071
   200   2      9.8790209999999998      9.1433309999999999      16.337492000000001
   201   2      9.0205310000000001      9.9876349999999992      15.465630000000001
   202   4               15.003904               10.803008      21.316289000000001
   203   2                15.48306      10.616452000000001      21.121082000000001
   204   2               14.035107               10.441811               20.833102
   205   4      22.655280000000001      22.366900000000001      20.864025000000002
   206   2               22.396217      22.744399999999999      20.559263000000001
   207   2      23.788695000000001               22.435848      20.978546999999999
   208   4               18.588566      18.254947000000001      26.029568999999999
   209   2      18.962662999999999      17.891528000000001      26.204146000000001
   210   2      17.730101999999999                17.88824      25.373014000000001
   211   4      2.4632000000000001      16.853518000000001               19.640034
   212   2      2.8457590000000001      17.248042000000002               19.662388
   213   2      2.7193809999999998               15.867507      19.125589000000002
   214   4      9.6687139999999996               24.253663      9.6983730000000001
   215   2      9.5176739999999995      24.374334000000001      9.1834690000000005
   216   2      10.394054000000001      24.951302999999999      10.236591000000001
   217   4      13.190500999999999      14.182964999999999      10.109095999999999
   218   2               13.110626      14.300152000000001               10.640497
   219   2               12.966529               14.985519      9.3291959999999996
   220   4      16.311876000000002      16.697013999999999      3.9191349999999998
   221   2      16.819503999999998      16.848044000000002      3.7707999999999999
   222   2               15.419585               17.179741      3.3963619999999999
   223   4                18.43188      19.713280999999998               15.931429
   224   2      18.394266999999999      19.881512000000001      15.409141999999999
   225   2                18.58013      18.601406000000001               16.141797
   226   4      6.7852139999999999               13.681101      7.3241589999999999
   227   2      7.2427849999999996      13.650976999999999      7.0204800000000001
   228   2      6.7749800000000002      13.188719000000001      8.3536999999999999
   229   4      9.9014589999999991               15.850807      17.277208000000002
   230   2      9.4104770000000002      16.050979000000002               17.423385
   231   2               10.037385               15.445855      16.218889000000001
   232   4      19.411722999999999      5.1491110000000004      9.8482830000000003
   233   2      19.907347999999999                4.941592      9.9657250000000008
   234   2      18.582318999999998      5.0671520000000001      10.627943999999999
   235   4      13.263083999999999      27.216197000000001      4.2929329999999997
   236   2               13.418576      27.164923000000002                3.767868
   237   2      13.860371000000001               27.905859      4.9785830000000004
   238   4      6.1918559999999996      21.506460000000001      16.553325999999998
   239   2      6.2064250000000003      21.552873999999999      16.005482000000001
   240   2      6.8292029999999997               20.703201      17.054387999999999
   241   4      5.5403209999999996      26.610364000000001               10.752991
   242   2                  5.6673      26.981041999999999      10.367019000000001
   243   2      5.5837070000000004      26.921793999999998      11.850091000000001
   244   4      7.9884849999999998      11.073943999999999      26.613122000000001
   245   2                7.554926      11.353535000000001      26.422453000000001
   246   2      8.8778260000000007               11.655268      27.029817999999999
   247   4      18.492149999999999      16.277094000000002      9.5018619999999991
   248   2               18.098395      16.602637999999999      9.2982010000000006
   249   2      18.832450999999999               15.376272      8.8893149999999999
   250   4      20.992767000000001      26.191182999999999      10.677058000000001
   251   2      21.352170999999998      26.288018999999998      10.272149000000001
   252   2               20.304506      25.284383999999999               10.596361
   253   4               14.127464      12.374810999999999      9.1049849999999992
   254   2      14.250792000000001               12.378244      9.6409690000000001
   255   2               14.927263      12.690512999999999      8.3545499999999997
   256   4                4.011755               15.382681      18.742716000000001
   257   2      4.5376430000000001      15.246335999999999      18.656974999999999
   258   2                3.732078      16.487767000000002      18.798096000000001
   259   4      9.1203699999999994      9.6788509999999999      14.231635000000001
   260   2      9.3490120000000001               10.157776      14.376041000000001
   261   2      9.6026670000000003      9.0688499999999994      13.396297000000001
   262   4               23.525143               15.165023      8.8869740000000004
   263   2               23.530078               15.393839      9.3870930000000001
   264   2      23.331810000000001               15.829967      7.9797969999999996
   265   4      16.110966999999999      5.2855100000000004      5.0025829999999996
   266   2               16.027168      5.2772509999999997      5.5460979999999998
   267   2                15.49357      4.5907660000000003      4.3402750000000001
   268   4      21.970486999999999               22.061633      23.636493000000002
   269   2               22.078999      22.078583999999999      23.097570999999999
   270   2      22.726807000000001               22.509905      24.364183000000001
   271   4      24.560511999999999      2.9786570000000001      2.4867900000000001
   272   2      24.302143000000001                3.132781      2.0263650000000002
   273   2      25.450803000000001                2.269104      2.4066839999999998
   274   4      5.7713570000000001      23.826118000000001      26.822984999999999
   275   2      5.2522529999999996               23.993613      26.893523999999999
   276   2      6.0675600000000003               22.785345               27.185692
   277   4      25.118694000000001      7.2210239999999999      22.020548999999999
   278   2                24.64105      6.9491759999999996               22.041895
   279   2      25.101721999999999      8.3512090000000008      21.862770000000001
   280   4               17.504458      17.466076999999999      17.081054000000002
   281   2      17.526257000000001      17.795656000000001      17.520828999999999
   282   2      17.203385000000001      17.911470999999999               16.074337
   283   4                4.594481      7.5245199999999999               13.140658
   284   2      4.1891610000000004      7.7752759999999999               13.415134
   285   2      4.4824539999999997      6.4181710000000001      12.883865999999999
   286   4               26.999133      8.1018410000000003               25.203239
   287   2      27.397148000000001      8.3752600000000008      25.466536000000001
   288   2               27.288511      7.2472789999999998      24.504321999999998
   289   4      2.7022219999999999                16.69924      16.804593000000001
   290   2                2.786429               16.639408               16.264381
   291   2      2.2288160000000001      17.666025000000001      17.183686999999999
   292   4      6.6587620000000003      6.9887839999999999      8.4157930000000007
   293   2      6.5841019999999997      6.6563280000000002      7.9840530000000003
   294   2      5.9717279999999997      7.8915790000000001      8.5400690000000008
   295   4      19.883037999999999      20.188199000000001      8.9732869999999991
   296   2      20.082221000000001      20.042888999999999      9.4649280000000005
   297   2               20.409305               21.015566      8.3893280000000008
   298   4      5.2383090000000001      19.064174999999999               23.519928
   299   2      4.7393970000000003      18.874019000000001               23.387912
   300   2      5.9453300000000002               18.390196                24.11016
   301   4      26.797536000000001               14.469301                11.48359
   302   2               26.633865               14.531955      12.004922000000001
   303   2               26.011962      14.265385999999999      10.681222999999999
   304   4               12.435207      5.3647099999999996      26.667826999999999
   305   2      12.244763000000001      5.2020920000000004      26.178146999999999
   306   2      12.945658999999999      4.5979869999999998      27.341677000000001
   307   4               12.765069               17.399376               23.378104
   308   2               13.021243      16.936471999999998      23.528420000000001
   309   2      11.934430000000001      17.339773000000001               22.597728
   310   4      2.6477560000000002               14.527374      18.014493999999999
   311   2                2.549029               14.973554                18.32056
   312   2      3.2768459999999999               14.637423      17.068642000000001
   313   4      25.658653999999999               25.358463      7.4325650000000003
   314   2      25.582101000000002      25.384868999999998      6.8885589999999999
   315   2      24.922294999999998      25.896916000000001      8.1183809999999994
   316   4      16.803913999999999      9.7581229999999994      23.125285000000002
   317   2               17.007012      9.6575450000000007      23.626418999999999
   318   2               17.511232      9.7331199999999995      22.229977000000002
   319   4      23.071110000000001      4.1977609999999999      16.611018000000001
   320   2      23.423998000000001      4.4590719999999999      16.942208000000001
   321   2      23.112881999999999      3.0587939999999998      16.551787000000001
   322   4                10.25403      2.2570649999999999               10.484221
   323   2      10.015765999999999      2.0075419999999999      10.055889000000001
   324   2               11.107804                2.988874               10.289216
   325   4               26.275962               18.106938               21.843785
   326   2      26.416813999999999      18.311019999999999      22.334714000000002
   327   2               26.325543      18.788786000000002      20.929932999999998
   328   4               13.510083      26.716208999999999               25.928269
   329   2               13.366192               27.046211      26.344073999999999
   330   2               12.831121      25.838162000000001      25.662665000000001
   331   4      5.3954820000000003      16.830701000000001               25.180685
   332   2      4.9528610000000004      16.558782999999998      25.361370000000001
   333   2                6.031193               17.407926      25.932472000000001
   334   4      13.877724000000001                2.864071      17.196847000000002
   335   2               13.668835      2.4032849999999999      17.412580999999999
   336   2               13.433166      3.8679610000000002      17.508413000000001
   337   4      7.7799569999999996      13.075773999999999      23.115576000000001
   338   2      7.7839919999999996               13.080301               23.665543
   339   2                6.960528               12.492443               22.576355
   340   4      3.2316549999999999      14.723100000000001      27.175305000000002
   341   2      3.3268089999999999               15.013541               27.632569
   342   2      3.4219140000000001      15.213677000000001      26.162569000000001
   343   4               11.163548               18.899618      19.556509999999999
   344   2      11.005699999999999      18.949857999999999               19.032048
   345   2      11.195868000000001      17.858931999999999      20.023872999999998
   346   4               13.655429      21.958902999999999                12.28884
   347   2                13.30456      22.269742999999998      12.576537999999999
   348   2               13.377841      20.873419999999999               12.071648
   349   4      5.3184810000000002      17.918939000000002               27.431594
   350   2      5.3707690000000001               17.800926      26.896954999999998
   351   2      4.2793270000000003               17.888527               27.902479
   352   4      22.536066999999999                7.036835                9.276548
   353   2      22.365197999999999      7.2896549999999998      8.8189620000000009
   354   2      23.144024000000002      7.6303559999999999      10.038532999999999
   355   4      11.670680000000001      5.8891109999999998      24.965402000000001
   356   2               11.558852      5.9943540000000004      25.493528999999999
   357   2      12.760344999999999      5.7735409999999998               24.646383
   358   4      5.7155509999999996               12.450367      18.198461000000002
   359   2      6.1058399999999997               12.396067      17.814761000000001